ITEM: TIMESTEP
100000
ITEM: NUMBER OF ATOMS
3997
ITEM: BOX BOUNDS pp pp pp
-2.8059222857791799e+01 2.8059222857791799e+01
-2.9761300136353700e+01 2.9761300136353700e+01
-2.8637824408595101e+01 2.8637824408595101e+01
ITEM: ATOMS id type xu yu zu c_pe c_ke c_stress[1] c_stress[2] c_stress[3] c_stress[4] c_stress[5] c_stress[6]
86 1 -2.58497 0.154124 -24.359 -2.49531 0.00152945 1.31871e+06 1.27109e+06 156860 412878 275369 -55058.3
42 1 2.58143 0.800823 -24.6374 -2.3631 0.0116085 1.12096e+06 296738 603472 52507.8 -351394 256146
276 1 -2.07536 -11.8945 -20.561 -2.86366 0.0417869 2.30058e+06 1.23675e+06 726776 -223974 -329067 -441940
277 1 -0.787442 -14.2546 -19.4707 -2.6103 0.117941 362554 -159938 46933.2 37659.7 195611 -691623
275 1 -9.76871 -7.55717 -21.0743 -2.7727 0.113559 46302.9 243044 454088 -21138.8 696741 121691
22 1 -6.19883 -9.18353 -21.6073 -2.57366 0.0352513 965558 1.25232e+06 680779 -64627.1 -225443 232363
261 1 -8.73058 -9.82278 -20.5869 -2.82219 0.080274 1.12892e+06 1.08802e+06 499793 36063.8 403527 56604.6
281 1 -3.4757 -9.42808 -21.1732 -2.9378 0.0476633 1.96751e+06 1.58221e+06 911709 -174907 -263091 -96451.8
269 1 -0.972791 -8.32869 -22.0932 -2.88487 0.043507 454535 1.08574e+06 732705 -101279 3853.88 -675749
266 1 -2.15919 -7.0747 -19.9285 -3.37607 0.105684 1.28207e+06 1.23753e+06 -307120 128014 258608 534993
270 1 0.607923 -10.8155 -21.8431 -2.43786 0.0244173 1.65882e+06 1.65145e+06 1.01746e+06 157525 -1.12328e+06 -926252
297 1 2.61374 -11.3336 -20.4171 -2.997 0.00441643 -275722 1.43183e+06 182481 380784 36840.5 30217
292 1 1.39265 -8.71346 -20.6081 -3.30393 0.0586411 588700 94062.8 -689416 -169596 -226765 -523438
29 1 1.3992 -7.57488 -23.0929 -2.57333 0.0264153 482378 2.06488e+06 662283 -381501 121180 -321426
34 1 3.91004 -7.62553 -22.1175 -2.90153 0.0526281 1.37724e+06 1.23347e+06 716154 -110140 -379432 -612269
298 1 4.93518 -10.2222 -21.5183 -2.60155 0.0445765 1.53114e+06 1.33289e+06 467178 66425.7 295602 -105980
257 1 7.54024 -10.4138 -20.4315 -2.73822 0.0238723 1.5043e+06 1.58938e+06 673957 250643 364333 -415752
290 1 6.53407 -7.83728 -21.0758 -3.0233 0.0463047 36916.8 1.20678e+06 759462 232591 -846406 -456468
320 1 8.76318 -7.78056 -19.9385 -2.95774 0.155024 -640303 -144635 1.0173e+06 855946 -477831 -692867
49 1 -10.8813 -4.9707 -21.216 -2.70017 0.138358 1.22297e+06 1.00537e+06 -581744 -566.707 490438 -180939
62 1 -9.45261 -2.48759 -20.4509 -3.22118 0.0734974 89638.9 782588 484606 51476.8 -569963 -177365
21 1 -7.6063 -6.74138 -22.027 -2.72994 0.0541421 -12987.4 1.36894e+06 -118444 -118736 221966 -333223
23 1 -6.26048 -3.12108 -24.0337 -2.0767 0.0280205 1.89229e+06 1.46958e+06 1.84239e+06 -131410 139295 -333587
64 1 -8.41342 -4.12839 -22.5065 -2.69114 0.0677538 1.13578e+06 1.31159e+06 740130 475647 -264869 79785.3
66 1 -5.92145 -4.27407 -21.4079 -3.30118 0.208267 507383 -156909 -418614 -73329 -645583 -318159
385 1 -8.29655 -5.12154 -19.9259 -3.39677 0.0229444 255957 -549997 -742387 300399 75999.8 494805
280 1 -4.94529 -6.78591 -21.083 -3.22336 0.0647467 1.51717e+06 440973 118920 55357.6 -44715.1 77974.8
31 1 -1.38406 -2.31983 -24.2002 -2.66575 0.0253564 1.43719e+06 1.34892e+06 1.29607e+06 -302190 36210.6 -7811.17
20 1 -2.39521 -6.0455 -22.3319 -2.91863 0.0784262 1.22075e+06 31816.8 -106085 603159 -408090 287600
19 1 -3.39276 -3.66491 -22.9978 -3.02728 0.0418247 1.65697e+06 745844 557163 -216916 -363250 170117
27 1 -1.12273 -3.58463 -21.6232 -3.36022 0.151652 -909767 461411 -849904 -267228 -172989 -691717
296 1 -3.28847 -4.41939 -20.3005 -3.29521 0.272904 -659538 -1.33765e+06 -935600 -128235 194452 1069.5
32 1 0.140378 -6.08199 -21.1067 -3.44131 0.0761493 525165 34945.7 -482212 -356431 154654 -665475
28 1 -0.114564 -5.07714 -23.7087 -2.7178 0.0393305 1.64287e+06 1.78497e+06 917564 -488794 112080 -262767
30 1 2.57892 -5.0823 -22.5941 -3.18594 0.0017932 983871 537944 470636 237819 390987 -476246
26 1 3.85022 -2.70089 -21.6329 -3.32981 0.0973861 -149724 -299769 -1.38312e+06 -431280 607119 -1.04655e+06
33 1 1.31387 -2.70438 -23.3337 -3.14649 0.21113 1.53935e+06 1.41474e+06 694752 298328 -131915 192905
303 1 1.57109 -3.69024 -20.5518 -3.31793 0.253528 -47978.3 40012.6 602485 99960.6 691546 181744
304 1 2.8812 -6.26496 -19.7787 -3.32193 0.016125 40214.8 -559324 240947 126556 437249 -193207
38 1 4.65599 -3.99329 -23.7531 -2.50709 0.0370472 463755 677145 345115 -132368 300524 -312217
289 1 5.0833 -5.46754 -21.3018 -3.2603 0.0139681 -222070 386745 124341 -623768 784010 -323988
40 1 7.13675 -4.75788 -22.4968 -2.75856 0.0329929 466233 1.04912e+06 123142 47167.5 849747 70444.1
44 1 6.34745 -3.06684 -20.4843 -3.38367 0.0429116 -91068 426306 -1.09531e+06 -99509.5 243405 106157
315 1 7.72342 -5.60471 -19.9705 -3.1835 0.025806 -301307 -1.5028e+06 -663086 295843 240614 -318065
46 1 9.83191 -4.65881 -21.3628 -2.74398 0.0379342 1.5562e+06 1.13377e+06 961854 605475 748402 110323
312 1 11.2423 -2.03389 -20.5005 -3.00208 0.00299348 96994.4 685030 -310117 189760 122986 -588860
313 1 12.5924 -4.59094 -20.0206 -2.68517 0.0182288 1.50514e+06 624024 -168551 -195001 560420 -339779
61 1 -11.0462 -0.188518 -20.658 -2.90968 0.0443344 -130103 1.19729e+06 -684486 466258 147630 -253336
71 1 -9.40378 2.33591 -19.7747 -3.27136 0.16405 -1.60385e+06 -1.11645e+06 -1.64198e+06 53337.2 325194 453426
65 1 -7.22171 -1.44655 -22.0027 -3.17787 0.0568382 368712 813359 173490 -13878.7 -124340 -446108
80 1 -5.98527 0.285949 -20.5765 -3.32755 0.125039 416895 -582822 -560619 -572648 -636266 333043
70 1 -8.62853 0.831093 -22.0076 -2.92892 0.0166508 1.41143e+06 855389 -398561 35890.5 -210089 372377
58 1 -6.12201 1.17151 -23.1187 -2.72366 0.0217982 332230 1.25877e+06 563126 216348 -338821 578238
53 1 -4.56322 -2.1521 -20.683 -3.36038 0.0681331 293144 -670095 686252 -131741 -100221 306016
59 1 -4.83031 -1.1048 -23.1386 -2.99807 0.0111766 -327756 -121264 -28708.3 -257459 -685442 205758
87 1 -2.53264 -0.986917 -21.932 -3.33998 0.0218094 350753 108003 -703135 32137.6 -157104 223969
89 1 -1.15317 1.31507 -21.3451 -3.39338 0.10243 -54682.1 450373 1.14356e+06 -450106 160970 288193
81 1 -3.6502 1.42126 -22.3972 -3.22335 0.0379502 -533530 10140.7 -420100 776086 -422405 -831972
25 1 3.6099 -1.53524 -24.0802 -2.7216 0.0085416 953022 -402980 154068 112610 396376 -99646.8
88 1 0.113984 -0.0319585 -23.5948 -3.11734 0.0138298 1.9465e+06 1.46058e+06 936428 -317475 -191205 -364269
90 1 0.368657 -1.34643 -20.9363 -3.35463 0.138026 1.24029e+06 451271 1.87151e+06 308631 15633.3 189177
24 1 2.73073 -0.0752423 -22.0964 -3.34342 0.00719506 -381713 645032 -1.14436e+06 77742.2 281532 149324
111 1 3.68924 2.31297 -21.1235 -3.31139 0.0264614 733479 -485619 -647940 368137 -263000 -58561
79 1 1.13301 2.27573 -22.5778 -3.29696 0.234225 1.21743e+06 390112 -531118 -216632 46938 -134160
73 1 1.39993 1.28219 -19.9119 -3.29865 0.0309412 -57751.6 458437 858689 -422967 418535 242605
41 1 8.74275 -2.28646 -21.664 -2.99545 0.223132 -17846.6 603933 -260356 453183 239145 137441
39 1 6.3236 -2.15236 -22.8589 -2.98819 0.00386544 674641 -27688 -674924 -686833 217200 -269930
43 1 4.9384 0.693141 -23.2333 -3.01249 0.0778536 -257126 1.33334e+06 -599319 -706837 -9889.99 713855
37 1 5.19799 -0.469721 -21.0402 -3.29324 0.0203027 -347307 139177 -334308 -465353 262304 281656
45 1 7.51616 0.332103 -22.3852 -2.97366 0.0327572 1.32211e+06 1.7197e+06 398528 -164507 436598 54512.8
114 1 6.46242 1.8973 -20.2737 -3.43363 0.074989 508842 417750 321315 -116797 534858 14535.4
325 1 7.80605 -0.601737 -19.8592 -3.36601 0.00406812 426155 357996 -411931 487408 -135017 -677858
36 1 10.2589 0.399966 -21.3427 -2.89932 0.0525225 1.54294e+06 893392 949424 364534 99984.3 -34613.5
48 1 12.6923 0.0843569 -19.8708 -2.98105 0.174877 -43319.3 -106954 -223026 -200386 -342415 -11892.6
47 1 11.3556 2.60216 -20.126 -3.06139 0.00157282 -171716 911363 -83155 -383778 -90751.6 168747
67 1 -11.8873 2.36839 -21.3156 -2.67167 0.0125041 1.32978e+06 898783 466624 60792.3 7347.52 251096
159 1 -10.6035 4.84545 -20.3627 -3.11263 0.0930695 -619500 100469 -826592 -160998 849306 28435.5
69 1 -9.65211 3.43604 -22.2771 -2.54643 0.00419018 724398 315971 230985 -288397 242432 -295343
55 1 -7.13751 2.9948 -21.0204 -3.30678 0.0245601 -657394 677732 -1.14743e+06 -76188.3 -170183 396733
85 1 -8.19657 5.58568 -21.7128 -2.89712 0.0645632 444227 1.19934e+06 705450 -754899 13433.5 309301
91 1 -5.75416 5.42151 -20.3938 -3.37497 0.0585014 -308517 820110 -1.29416e+06 259925 -723354 533295
2 1 -5.99028 6.6 -22.7199 -2.52526 0.027207 1.29917e+06 601052 248350 215031 207664 268005
4 1 -5.05413 3.97986 -22.7155 -3.03245 0.0330126 1.51683e+06 1.67203e+06 496914 -10848.4 61015 370551
5 1 -1.41521 2.73147 -23.9005 -2.82013 0.0732086 1.83686e+06 1.80817e+06 991513 -93590.2 -353484 -34479.2
82 1 -4.67765 2.6692 -20.2263 -3.32559 0.129325 -1.66425e+06 519844 -135526 -138923 -331973 197856
3 1 -2.82215 5.04928 -23.6746 -2.49908 0.0726905 588070 287372 -1.12355e+06 -316142 340714 -93678.3
94 1 -2.47353 3.82795 -21.5135 -3.37271 0.0266004 460842 -390783 -1.6256e+06 245721 -141843 407569
93 1 -3.32688 6.48598 -21.7121 -3.17633 0.0159334 55844.3 -452551 -1.66801e+06 343712 95501.9 154805
75 1 -1.02893 6.08115 -20.4292 -3.31287 0.163887 -1.25652e+06 -235167 -668105 570575 -605667 733153
110 1 3.5635 3.19639 -23.8194 -2.70812 0.0102871 1.68369e+06 1.29301e+06 786374 -30710.4 198471 -355499
104 1 0.152866 3.69425 -20.3778 -3.36463 0.0547931 791749 -628140 549760 625006 141950 -294323
78 1 0.0389366 4.88346 -22.7922 -3.09419 0.0188091 1.61752e+06 641759 269057 260737 -284821 512146
105 1 2.62468 4.63883 -21.7371 -3.26772 0.0282504 583634 296087 -128496 124391 154703 259528
112 1 6.30281 3.13575 -22.8414 -2.94601 0.0439496 2.04241e+06 1.35764e+06 1.12501e+06 -254368 89615.6 -276158
35 1 8.88993 2.78443 -21.4935 -2.99327 0.0612945 1.06234e+06 1.04325e+06 228405 15023.5 174489 271839
113 1 5.30089 4.54096 -20.5124 -3.40045 0.0329337 307180 378405 -718111 100849 216841 493958
103 1 7.45729 5.38011 -21.8418 -3.04651 0.0241151 1.20051e+06 1.38796e+06 711232 -687169 497519 59135.8
8 1 4.82418 5.6174 -22.9766 -2.67539 0.0210045 992520 1.06237e+06 489149 -128694 162862 188376
131 1 10.099 5.10777 -20.56 -2.99985 0.0337033 781258 -296039 352563 -855856 405164 -129295
10 1 -11.5384 7.34413 -20.5169 -2.53029 0.0266285 403959 427834 499396 120798 -724933 360977
178 1 -6.92512 8.17046 -20.6323 -3.05246 0.0230133 1.88728e+06 1.44445e+06 -487343 340486 -289563 459361
14 1 -5.69728 10.7431 -19.8692 -3.09356 0.0837534 1.2686e+06 1.04363e+06 873247 -398115 -582016 482063
12 1 -4.32713 9.00624 -22.0445 -2.69582 0.0285616 935788 1.16062e+06 926866 143873 -1.00336e+06 369174
1 1 -1.23086 7.1868 -23.0586 -2.75372 0.134495 687389 486612 599503 -66080 625953 424393
109 1 -2.06869 8.79133 -20.9873 -3.2108 0.0389186 -1.42613e+06 206427 -635538 -436470 -795847 489474
11 1 -3.26083 11.3599 -21.1481 -2.65927 0.0741771 382068 1.43744e+06 643308 -157386 -564380 507312
202 1 -0.898236 11.1663 -20.0652 -3.21545 0.0628602 581145 1.17736e+06 66930.8 199193 -353512 440716
6 1 0.0417095 9.67337 -22.2799 -2.48031 0.054291 988301 1.16222e+06 405365 99895 239511 494000
118 1 3.8886 6.98536 -20.7601 -3.26524 0.0239013 -66330.3 231059 -747679 -657441 -17548.9 379834
7 1 1.43952 7.30878 -21.9644 -3.04784 0.0189726 1.59265e+06 444342 112709 119295 -324969 -128098
117 1 2.48324 9.54769 -20.9094 -2.91251 0.0331358 778084 -227707 -680193 -820711 49968.3 -74688.3
115 1 0.280189 8.55239 -19.8618 -3.32942 0.00694708 -981604 188388 -707749 4462.13 695347 557100
126 1 9.00767 7.66163 -21.0727 -2.95039 0.0065646 1.24881e+06 1.64241e+06 961162 -203716 366887 286987
102 1 5.96578 8.04193 -21.9962 -2.65163 0.0150689 1.43771e+06 1.36544e+06 -932321 -89229.6 699166 50445.3
99 1 5.24484 9.10067 -19.8928 -3.13459 0.120463 17234.6 -1.84495e+06 -1.329e+06 1.1048e+06 364353 530726
9 1 7.35769 10.4017 -21.0437 -2.59273 0.0529365 1.10701e+06 1.53193e+06 -356622 -433404 195670 -208317
136 1 9.94677 10.2036 -20.0685 -2.58472 0.0629041 1.22537e+06 1.32088e+06 -44811.3 -529399 968356 61301.3
15 1 -1.7635 13.8624 -20.1677 -2.57869 0.0186835 1.01967e+06 676271 593859 -87516 -268108 741194
130 1 4.35447 11.4097 -20.4559 -2.72981 0.170468 1.44153e+06 437184 422065 -312126 -522138 615290
733 1 -5.62696 -16.0867 -17.0411 -2.74481 0.0261199 1.613e+06 886970 1.93333e+06 -359421 -219247 -887912
736 1 -7.91394 -17.2189 -15.6453 -2.62007 0.04116 1.53973e+06 792918 477234 453062 -24745.5 262120
757 1 -3.00017 -16.4658 -15.8603 -3.14946 0.040353 404833 -237246 739031 -634733 516092 -789920
703 1 -1.95898 -18.9097 -15.0726 -2.76788 0.0208552 495023 259796 408275 329526 -84619.9 -512884
704 1 0.172481 -18.2722 -16.8072 -2.39504 0.0882733 742962 1.69045e+06 786616 200500 85271.7 -460442
702 1 2.8392 -18.2268 -15.8286 -2.60973 0.220572 1.21119e+06 705062 1.88879e+06 444943 -513446 -49466.1
739 1 -10.4046 -12.4358 -16.5207 -3.11117 0.0142429 1.34323e+06 1.82225e+06 1.42532e+06 -218554 -473173 -278295
740 1 -9.00591 -14.9513 -16.3489 -2.85611 0.0254963 1.56363e+06 1.09698e+06 1.99197e+06 42427.9 -251613 -122544
271 1 -7.5774 -12.6493 -19.8234 -2.32423 0.0916856 1.81498e+06 2.02954e+06 685999 -168815 24864.7 -513044
732 1 -6.87444 -13.6047 -17.4186 -3.13146 0.193567 732920 -26566.4 -174572 -287467 -364217 -13043.9
279 1 -5.48962 -11.3802 -16.81 -3.35529 0.0195442 217000 -344819 608076 -475219 -441530 -66446.7
262 1 -8.15926 -11.1668 -17.7527 -3.22483 0.0696566 -1.20436e+06 -817189 -575978 408841 -668330 -711781
758 1 -0.992938 -15.6297 -17.2542 -3.04436 0.0867004 767123 388217 -767828 -676172 745423 -553461
751 1 -4.34037 -13.9391 -16.3313 -3.29342 0.153166 -385592 -388187 -212964 33073.1 -346965 -903733
273 1 -4.66326 -12.6588 -19.4713 -2.95848 0.0582996 1.72411e+06 336943 1.51569e+06 368307 -134886 -169098
756 1 -3.53266 -14.8642 -18.6925 -2.64943 0.0859015 1.54748e+06 163885 742236 149609 78883.7 -247624
283 1 -2.04441 -12.7578 -17.9509 -3.27182 0.0833179 701699 -816829 -860724 -469910 251323 -1.63648e+06
764 1 -2.93441 -11.4889 -15.6592 -3.25573 0.289782 -1.18356e+06 -246125 987572 79447.2 625839 -413621
258 1 4.08228 -13.514 -19.8269 -2.58113 0.0584882 1.47156e+06 330010 252864 353013 219886 -99100.9
264 1 0.536467 -12.1034 -19.1854 -3.20856 0.0558484 -366711 -990829 -187092 -1.17261e+06 116847 -438543
701 1 1.82805 -15.8788 -16.4215 -3.22197 0.0479807 846351 -503142 1.31821e+06 1.08512e+06 -73503.3 14901.5
749 1 0.719004 -13.6405 -16.8599 -3.33931 0.0789597 705411 -527068 334461 -237149 437721 299097
710 1 4.25041 -14.9699 -17.6473 -2.98107 0.0336512 1.53823e+06 1.07934e+06 32682.2 52934.1 -46725.7 101750
709 1 1.76866 -14.8193 -19.0649 -2.71608 0.196551 579194 1.56711e+06 827672 340701 132485 -998454
780 1 2.84736 -12.4096 -17.7858 -3.3981 0.0487847 -683947 277892 -447835 -32479.4 228607 -405638
713 1 6.88245 -15.1233 -16.3381 -2.94088 0.0171162 965551 1.62842e+06 790386 396633 -724816 -198832
300 1 5.217 -11.1775 -19.0604 -3.29966 0.00321143 609368 -327815 -1.0001e+06 64772.9 266704 -578467
782 1 5.34057 -12.583 -16.5989 -3.36959 0.0918908 15752 939246 -96250 227289 1.246e+06 -540264
706 1 9.35408 -13.6618 -17.6963 -2.69168 0.0972504 -142172 1.31912e+06 929523 297517 -717134 -832700
712 1 6.80651 -13.4502 -18.5404 -2.74351 0.029144 1.10056e+06 388491 593149 158133 323112 -881020
718 1 7.8029 -11.2563 -17.7922 -3.26309 0.107278 1.31143e+06 -1.14147e+06 -828974 62830.8 168213 -426514
705 1 8.06652 -12.5725 -15.5123 -3.39736 0.111458 1.01391e+06 608867 -271118 104273 -109783 -435585
719 1 10.5834 -11.4548 -16.7204 -3.19785 0.0207189 -845810 -323742 -1.19479e+06 -312253 931634 26528.1
717 1 11.6114 -14.0646 -16.5553 -2.43723 0.0680746 974246 1.09079e+06 1.2947e+06 46052.2 -720793 -665198
722 1 12.8893 -12.0817 -15.4148 -3.02367 0.0304588 -543261 759928 -3003.32 54658 -202833 -605236
360 1 -15.4871 -7.94905 -15.6844 -3.05174 0.0698329 1.19136e+06 896645 329611 28185.9 -3129.22 -641901
263 1 -10.2959 -10.9109 -18.8614 -2.53 0.128463 -686083 -196693 -254150 -511063 -339467 59424.8
363 1 -11.6546 -8.57113 -19.3811 -2.79218 0.0440013 1.25745e+06 1.14395e+06 422958 -538664 -275189 277094
365 1 -11.7169 -9.66149 -16.9302 -3.1714 0.0148066 1.49684e+06 1.0699e+06 209536 50961.2 -328071 -236271
352 1 -10.395 -7.24647 -16.0695 -3.38155 0.145371 -259247 -44406.2 443431 332190 24240 24242.7
364 1 -12.9863 -7.1905 -17.0222 -3.21295 0.0594567 546302 -353236 722063 -546055 -764518 -260586
260 1 -9.20574 -8.71298 -18.1611 -3.34774 0.151573 -1.19989e+06 -1.32905e+06 -585140 -893455 -905350 -671136
755 1 -9.13364 -9.67922 -15.6225 -3.37598 0.0979737 236242 72883.9 216735 108692 307604 410547
272 1 -5.98652 -10.2168 -19.2662 -3.24281 0.050693 755662 -313494 -932532 -365749 -228928 -227696
278 1 -7.24089 -7.42349 -19.4832 -3.37643 0.0840814 108016 -118248 -1.0079e+06 625488 460733 290011
268 1 -6.81129 -8.87939 -17.0875 -3.28255 0.0834465 -1.04762e+06 -479431 -145080 -345570 -129075 -347310
282 1 -4.70948 -8.03603 -18.7444 -3.29647 0.0977322 -167226 -141786 952208 126619 -9277.97 535697
748 1 -0.715865 -10.9111 -16.9316 -3.23497 0.0679688 -933472 71914.1 -42778.5 -1.06321e+06 172782 64763.1
274 1 -3.43635 -10.3557 -18.4871 -3.35372 0.011201 -209708 -26442.9 819223 23321.7 -108659 13001.5
291 1 -0.875196 -9.7698 -19.4883 -3.39596 0.0482877 -287404 572993 601202 -160174 28154.5 -314803
267 1 -2.03608 -8.26925 -17.3374 -3.34718 0.0117197 839015 827376 959381 -8253.68 74962.6 -352630
763 1 -4.31356 -9.21707 -15.8384 -3.2745 0.0886162 -276761 -622589 854097 -297014 -144081 -37164.1
293 1 0.517874 -7.15408 -18.5193 -3.30569 0.00164377 106603 242222 27592.8 198943 237819 -233592
302 1 0.466633 -8.45262 -15.95 -3.32866 0.00742798 597858 -265920 -11848.6 268313 153033 65546.7
306 1 4.1123 -9.92551 -17.0905 -3.31706 0.0373388 316906 -42026.1 483345 429214 -197045 82412.7
294 1 1.52092 -9.91276 -18.1677 -3.33131 0.00834027 -92749.3 -43590.5 -56111.1 -358665 -395598 202721
299 1 3.93694 -8.68939 -19.5374 -3.35506 0.0554003 811707 -185296 -1.11066e+06 964132 54860.5 -373649
295 1 2.98947 -7.5071 -17.3561 -3.28307 0.0458711 302190 -198589 150549 744704 16477 101497
775 1 1.67605 -11.0492 -15.5877 -3.31506 0.116771 -559762 588590 39961.8 289819 49745.6 344055
284 1 6.58445 -8.89757 -18.4231 -3.40678 0.0137985 397498 -1.25651e+06 -340021 515071 359471 -135770
772 1 5.69264 -7.59146 -16.0739 -3.23212 0.235583 -56785.2 -1.74404e+06 -726593 152402 -211600 599659
773 1 6.69223 -9.88066 -15.8547 -3.262 0.0212542 -72775.5 -827495 -289881 511373 -17654 -104238
317 1 7.9515 -6.64409 -17.3911 -3.36581 0.0702088 -861062 -731211 -562916 391213 -228060 542670
314 1 5.40586 -6.54962 -18.6046 -3.36786 0.199502 -536772 -1.2363e+06 372069 -12344.7 -535617 201965
804 1 9.15626 -8.95332 -16.996 -3.22052 0.0203835 -380006 -1.65555e+06 -745772 -361625 332792 -1.25272e+06
259 1 10.1511 -10.257 -19.1797 -2.75144 0.0139113 394738 656012 447861 -194724 -408982 -476454
721 1 12.3884 -10.9264 -18.1387 -2.36576 0.0517631 -475984 2.11236e+06 452186 417058 578945 45579.4
724 1 14.1082 -8.40283 -17.4911 -2.82946 0.056701 832850 1.9768e+06 1.05224e+06 193942 123626 -324284
322 1 11.3646 -8.12287 -18.6881 -3.00409 0.0551848 907901 -611083 442590 32445.5 336786 -700948
328 1 10.4918 -7.03934 -16.3336 -3.22132 0.183173 -1.57639e+06 -1.65391e+06 -857139 -419690 27618.2 -85436.3
806 1 11.8615 -9.17278 -16.0359 -3.35116 0.0465781 -219697 -550589 366050 213456 -254846 -570375
725 1 16.3305 -8.58616 -16.3274 -2.38139 0.0170527 425505 2.23377e+06 1.3704e+06 75973.3 -411929 -197756
60 1 -14.1688 -3.00568 -19.9621 -2.39911 0.0171343 604343 1.33236e+06 911412 -458646 -505044 269357
362 1 -15.3886 -6.71747 -18.295 -2.23858 0.0203933 1.53761e+06 1.52907e+06 1.68794e+06 -279523 -486231 -186595
359 1 -17.0038 -5.6161 -16.114 -2.98582 0.0256007 1.6655e+06 1.34362e+06 738977 561403 -901166 -173960
366 1 -17.922 -2.87734 -16.2836 -2.69513 0.0575115 174705 720501 -636134 365875 -258994 -69612.1
370 1 -15.3719 -2.95351 -15.5811 -3.32075 0.242723 -728215 393336 -570905 370095 -497171 -74252.8
369 1 -14.5293 -4.33115 -17.6331 -3.14201 0.0364329 646002 -823675 -965017 9697.58 -792786 -479534
52 1 -12.9154 -5.71827 -19.5024 -2.89943 0.0857948 -66709 739578 37719.8 -856851 -357505 -314243
358 1 -10.4632 -6.14949 -18.811 -3.31115 0.0620014 -1.41881e+06 824989 -884041 -98568.3 -629772 -297398
357 1 -11.7315 -3.47464 -19.3238 -3.14822 0.0212606 -174994 128589 -290943 -546348 -326454 -687492
379 1 -11.8741 -4.93679 -16.9224 -3.36589 0.21025 -163155 -230280 335470 64600 235359 346472
380 1 -9.28552 -3.63645 -17.7166 -3.29697 0.0949835 -462311 -1.1676e+06 -194851 356519 392798 -238502
381 1 -10.4149 -2.39484 -15.7093 -3.22613 0.0105833 -674451 -672183 -1.04771e+06 688611 556937 99821.2
389 1 -5.65606 -6.61503 -16.453 -3.30136 0.00633626 419440 -791392 734191 -605082 137651 -642796
386 1 -8.26073 -6.22742 -17.4441 -3.24432 0.0107997 -529569 -246022 -513078 161598 -61320.9 60660.1
387 1 -5.59115 -5.06587 -18.9085 -3.26644 0.134922 -232830 -397157 -848880 -424149 330316 -293517
72 1 -7.13843 -2.67548 -19.3862 -3.34196 0.0606354 5664.2 341838 500923 -134609 -260958 -133150
388 1 -6.74498 -3.90844 -16.9007 -3.24383 0.0563915 -923714 -58152 -505376 247537 -703423 -230656
378 1 -4.09403 -3.19527 -18.0364 -3.18608 0.137551 -805527 -2.01716e+06 -555662 -529108 -175015 -149092
288 1 -0.450426 -5.87599 -16.436 -3.2937 0.0161325 -252074 -41602.6 -220606 230252 -94699.2 -5219.89
265 1 -2.99904 -5.53151 -17.6642 -3.28914 0.266877 -84307.6 -732343 -329063 539644 -440060 -214534
301 1 -0.694183 -4.58405 -18.9953 -3.30513 0.105035 -79080.8 -835109 204757 673448 72600.9 264301
410 1 -1.7861 -3.35321 -16.5869 -3.29937 0.0654638 126022 137635 -461702 -72773.5 -218173 -597383
287 1 4.41074 -4.97392 -16.321 -3.30994 0.00587228 -576359 755690 -173002 -150796 -184369 516353
305 1 1.86757 -4.86476 -17.7494 -3.30824 0.153691 -473208 -91397.4 -222152 -247961 398991 -296753
411 1 0.498581 -2.17569 -18.0192 -3.36164 0.0181923 658123 634018 749084 -273917 -348534 6617.76
286 1 4.08543 -3.98853 -19.0052 -3.33534 0.0048815 -382882 48714.6 892765 -475472 -253798 133936
285 1 3.10286 -2.38326 -16.788 -3.31899 0.154638 99913.2 -564800 -401316 -206237 328064 -417196
413 1 0.823481 -3.39854 -15.4795 -3.31346 0.0702787 -245633 40225.8 -765775 91589.3 -239777 -19114.8
316 1 6.55492 -4.25139 -17.8698 -3.31366 0.0157425 -861051 -742191 -28843.3 -30140.2 -40456.9 249943
326 1 8.7868 -3.26087 -19.1991 -3.38756 0.00352028 662690 122305 -1.17139e+06 -62119.3 35002.9 -242391
311 1 5.78105 -2.67565 -15.6027 -3.32926 0.0185536 134904 -871417 -660744 -267758 -263925 -166346
318 1 9.19187 -4.18203 -16.6083 -3.33762 0.0213551 355486 286300 597092 6912.05 -432284 702347
324 1 6.85965 -5.22226 -15.2438 -3.33013 0.146675 -776899 230917 -1914.88 -327913 -76406.4 300026
307 1 12.5441 -5.7797 -17.7078 -3.21451 0.0544406 -740870 -4225.49 -1.25818e+06 83753.3 -431140 149220
321 1 10.2039 -5.83853 -18.8039 -3.24319 0.0501699 -834802 -302725 -20761.8 180246 -489540 -231378
333 1 11.4855 -3.34848 -18.0683 -3.34968 0.175797 -604612 -782025 -920511 470649 295368 -236261
796 1 11.6856 -4.58635 -15.3785 -3.34893 0.0239355 -203195 13080 -272330 141634 112968 216370
334 1 13.7225 -2.28702 -19.5153 -2.94994 0.0377228 297571 -1.09732e+06 118470 250002 283212 -134332
336 1 13.7824 -3.31321 -16.8985 -3.3084 0.0222775 -430493 -946051 -486167 613648 49182.8 -809688
828 1 14.959 -5.95746 -16.6158 -3.11398 0.022655 -795341 8902.28 -820457 -726061 786199 -9053.49
339 1 15.0775 -4.49481 -18.6868 -2.6178 0.0643622 775333 967177 -276553 616646 569323 -195582
340 1 16.6078 -2.08088 -18.1313 -2.58533 0.0640534 1.37715e+06 28843.8 424342 191201 423015 -341143
346 1 16.508 -3.78784 -15.9563 -3.27581 0.110516 563629 498026 1.28043e+06 192535 385522 317501
830 1 17.4163 -6.15925 -15.2174 -2.82677 0.0866646 719708 997521 142837 261937 625862 505192
492 1 -18.7108 -0.450479 -16.8423 -2.48702 0.25269 164847 -765533 212266 -104142 -69556.9 337333
368 1 -16.047 -2.02494 -17.956 -2.97441 0.149605 1.60969e+06 1.45379e+06 -572540 -29414.1 -604622 317820
50 1 -14.3214 2.08926 -19.4989 -2.80662 0.212535 1.09025e+06 1.24576e+06 324836 -379411 -499023 -153390
144 1 -16.5464 0.654685 -18.5186 -2.65612 0.012344 1.33451e+06 1.6565e+06 1.09475e+06 79806.8 -52247.4 -109056
497 1 -16.2797 -0.363547 -15.8844 -3.39457 0.0155499 -727638 -313677 -586424 476595 -683593 -583487
384 1 -14.0255 0.497604 -17.2974 -3.32308 0.0137568 146616 256577 -731957 427214 -486362 257581
145 1 -17.6631 1.94695 -16.4303 -3.0175 0.0607387 792478 888208 1.25866e+06 114767 -285155 26261
354 1 -13.0636 -2.16397 -17.0941 -3.44214 0.00532722 878232 188255 838682 -467401 511760 -341024
68 1 -10.5945 -1.21406 -18.2424 -3.33157 0.0194891 -409653 -13818.5 -1.01437e+06 214574 168548 90182.3
51 1 -13.2483 -0.589899 -19.4729 -2.9659 0.0537604 600982 903258 -479436 -568853 264608 -673551
57 1 -11.4992 1.46944 -18.8264 -3.31178 0.0702111 -387277 -797949 -1.49904e+06 -597035 416829 -589150
390 1 -11.5933 0.181186 -16.199 -3.30967 0.0396712 -674922 -207759 -113299 56292.4 224987 83249.8
63 1 -8.51113 -0.00776386 -19.6232 -3.27775 0.104637 -451975 -869586 -1.05403e+06 105306 71170.7 331353
392 1 -9.13379 1.27265 -17.2293 -3.32509 0.0724897 -564955 -229706 -633333 192652 -29699.9 441397
393 1 -8.16342 -1.3067 -17.1507 -3.31453 0.0425158 -718867 -692496 327552 -303313 -12833 -34390.2
377 1 -5.56011 -0.70476 -18.1972 -3.23487 0.0431515 446095 933973 -622129 -307466 -239546 692162
374 1 -6.74529 1.11531 -16.0752 -3.30952 0.0123059 -444219 27486.5 -53360 1404.28 -242496 -114556
56 1 -6.97854 2.26643 -18.5906 -3.25321 0.0426715 -1.18248e+06 -127342 -899233 -178122 -195560 487923
403 1 -5.67806 -1.58685 -15.7486 -3.24107 0.0264219 936900 448446 -877028 -349383 -124366 616036
409 1 -1.96182 -2.37037 -19.4464 -3.22988 0.0436257 -896634 -787480 315965 280390 414893 -265942
83 1 -3.18545 0.258828 -19.6558 -3.27883 0.0535604 -175714 -577318 -92433.5 -399068 91108.7 -177660
412 1 -0.507543 -0.718258 -15.7732 -3.33207 0.144726 -167331 9066.5 -204951 -134070 334554 -43955.1
404 1 -3.04156 -0.722586 -17.1834 -3.30967 0.189623 185821 459341 -323912 31240.4 -309534 -138875
96 1 -0.719861 0.434585 -18.6123 -3.26316 0.0861522 -707176 811494 465532 -206467 -225504 181075
417 1 -1.93783 1.77843 -16.3264 -3.33403 0.0742648 -50449.2 143588 128527 -151920 419884 -76756
92 1 -4.46561 1.97088 -17.5751 -3.29632 0.032737 -1.06951e+06 -364368 -840547 53187 270033 116123
319 1 3.00023 -1.34579 -19.5301 -3.32551 0.0446915 855261 785968 767219 57897.4 258508 -203188
434 1 4.46444 -0.0298682 -16.2762 -3.28273 0.0718516 -575166 510356 -447092 -70501.2 -390875 210842
402 1 1.79932 0.195326 -17.268 -3.30179 0.0310248 49621.8 -153396 -78398 782.783 -452040 4604.26
433 1 4.30445 1.11286 -18.7644 -3.30969 0.0706125 800992 423713 -101314 -38671 -49802.3 508090
327 1 8.10134 -1.80369 -17.0151 -3.29397 0.101769 -687469 -853840 404114 458056 -86933.2 -53524.1
323 1 5.6678 -1.6628 -18.1625 -3.32123 0.0159452 140612 -364407 410642 105610 -352448 -319880
435 1 6.96907 0.704579 -17.6794 -3.28365 0.0103119 -439370 -396004 -318907 -425407 -215985 -229394
338 1 9.06253 1.78309 -19.0479 -3.35811 0.0057108 167415 279405 236146 -173199 645202 556898
310 1 10.7498 -1.85559 -15.8 -3.28103 0.0443475 -239107 -164910 -96705.1 -336821 -597872 -104304
308 1 9.21538 0.673328 -16.1222 -3.32035 0.0138076 129193 135588 883125 238711 -753581 -121955
335 1 12.837 -0.927335 -17.3563 -3.38642 0.00807559 176946 -380408 -177472 177780 318921 28449.5
309 1 10.219 -0.744012 -18.5891 -3.36152 0.0402085 404084 812851 451244 346055 393528 -272585
341 1 11.7381 1.78028 -17.6152 -3.288 0.020856 213234 338270 -859891 123842 -214978 392182
345 1 14.1168 1.4401 -16.6056 -3.44412 0.0481772 -866592 714102 -138301 -165171 -330324 -106298
337 1 15.2716 -1.21486 -16.0951 -3.3611 0.00240042 -687576 -191232 -1.35658e+06 -152679 269456 -827418
348 1 17.5864 0.08231 -17.3055 -2.42706 0.150923 799316 -1.34162e+06 408278 461378 128571 -156233
344 1 15.1071 0.00750792 -18.794 -3.04866 0.0404634 109048 1.00896e+06 686448 342668 -33349.3 -25287.9
330 1 16.5816 2.30001 -17.7622 -2.7123 0.13717 1.03596e+06 -136736 883133 963467 489320 312499
153 1 -16.4888 5.51025 -17.8931 -2.47982 0.132447 1.63811e+06 1.91273e+06 1.64212e+06 242826 -439125 619963
142 1 -15.2534 3.09406 -17.2793 -3.08844 0.115223 -255551 122917 -1.24473e+06 239426 -395237 -349576
154 1 -14.0763 6.35965 -19.2747 -2.7574 0.0914115 781809 941126 391011 766580 -598096 220606
156 1 -13.9294 5.22474 -16.824 -3.3315 0.0307607 -1.05052e+06 -71145.7 -142629 -670563 -697428 -179414
517 1 -12.6559 2.75626 -16.6796 -3.35301 0.0427551 -364598 -20616.4 1.64765e+06 10364.2 366329 25027.5
161 1 -10.4454 3.84371 -17.7177 -3.35796 0.113743 -972957 -205047 -290105 -265175 61883.8 -297137
158 1 -12.6145 4.07542 -19.2428 -3.08629 0.0832693 -1.25564e+06 -388374 -313663 -750312 -276590 -83989
160 1 -11.74 6.29013 -18.126 -3.2876 0.0515595 -453741 -802094 -2.4898e+06 -21956.7 -391568 181099
54 1 -8.12111 4.65995 -18.9713 -3.40871 0.04104 -233146 -988039 411694 288013 68890 4261.62
408 1 -7.96554 3.72094 -16.334 -3.31888 0.21249 -532376 -1.1325e+06 -1.57734e+06 364826 -262755 -263411
541 1 -6.47741 6.05113 -15.7506 -3.35772 0.162214 -42041.2 -103782 -27309.3 96939.9 14637.5 -135273
146 1 -9.20895 6.13112 -16.6838 -3.36105 0.135963 -32022.7 -473384 522995 -178478 354146 -224632
77 1 -5.50554 4.46341 -17.9065 -3.28156 0.0863312 -543970 -515205 -591244 -131941 -502134 296346
179 1 -6.79617 7.07116 -18.3253 -3.29693 0.0501734 286868 -598685 -251725 -128253 -115487 425183
84 1 -2.39832 2.70114 -19.0181 -3.24354 0.100115 -973465 -1.1158e+06 -62078.2 -37273 -153214 -30231
95 1 -3.35288 5.27633 -19.437 -3.24171 0.0331218 -1.10111e+06 495008 -679788 191547 245851 715183
416 1 -3.03807 4.42758 -16.8621 -3.30966 0.0509117 -1.15033e+06 -451778 -343766 -112594 243279 182347
432 1 -1.50096 6.66335 -15.8212 -3.32438 0.148243 -721304 -88640.2 -569344 209782 434739 -12110.8