LAMMPS (15 Sep 2022)
OMP_NUM_THREADS environment is not set. Defaulting to 1 thread. (src/comm.cpp:98)
  using 1 OpenMP thread(s) per MPI task
Loaded 1 plugins from C:\Users\lmh1\Documents\LAMMPS\2022-09-15\plugins
# Simple script to perform an nvt LAMMPS relaxation

# Configuration and potential information
units metal
atom_style atomic

boundary p p p
read_data init.dat
Reading data file ...
  orthogonal box = (-28.059223 -29.7613 -28.637824) to (28.059223 29.7613 28.637824)
  1 by 1 by 1 MPI processor grid
  reading atoms ...
  3997 atoms
  read_data CPU = 0.011 seconds

print "Potential 2003--Zope-R-R--Al--LAMMPS--ipr1 listed in the NIST Interatomic Potentials Repository:"
Potential 2003--Zope-R-R--Al--LAMMPS--ipr1 listed in the NIST Interatomic Potentials Repository:
print "https://www.ctcms.nist.gov/potentials/entry/2003--Zope-R-R-Mishin-Y--Al/2003--Zope-R-R--Al--LAMMPS--ipr1.html"
https://www.ctcms.nist.gov/potentials/entry/2003--Zope-R-R-Mishin-Y--Al/2003--Zope-R-R--Al--LAMMPS--ipr1.html
print "Publication(s) related to the potential:"
Publication(s) related to the potential:
print "https://doi.org/10.1103/physrevb.68.024102"
https://doi.org/10.1103/physrevb.68.024102
print "Parameter file(s) can be downloaded at:"
Parameter file(s) can be downloaded at:
print "https://www.ctcms.nist.gov/potentials/Download/2003--Zope-R-R-Mishin-Y--Al/2/Al03.eam.alloy"
https://www.ctcms.nist.gov/potentials/Download/2003--Zope-R-R-Mishin-Y--Al/2/Al03.eam.alloy
print "https://www.ctcms.nist.gov/potentials/Download/2003--Zope-R-R-Mishin-Y--Al/2/Al03_releaseNotes_1.pdf"
https://www.ctcms.nist.gov/potentials/Download/2003--Zope-R-R-Mishin-Y--Al/2/Al03_releaseNotes_1.pdf
pair_style eam/alloy
pair_coeff * * 2003--Zope-R-R--Al--LAMMPS--ipr1\Al03.eam.alloy Al
mass 1 26.982



compute pe all pe/atom
compute ke all ke/atom
compute stress all stress/atom NULL

thermo 100
thermo_style custom step temp pe ke etotal lx ly lz yz xz xy pxx pyy pzz pyz pxz pxy
thermo_modify format float %.13e
timestep 0.001

velocity all create 500 8675309
fix nvt all nvt temp 500 500 0.1

dump dumpit all custom 100000 *.dump id type xu yu zu c_pe c_ke                                 c_stress[1] c_stress[2] c_stress[3]                                 c_stress[4] c_stress[5] c_stress[6]

run 100000
Neighbor list info ...
  update: every = 1 steps, delay = 10 steps, check = yes
  max neighbors/atom: 2000, page size: 100000
  master list distance cutoff = 8.724884
  ghost atom cutoff = 8.724884
  binsize = 4.362442, bins = 13 14 14
  1 neighbor lists, perpetual/occasional/extra = 1 0 0
  (1) pair eam/alloy, perpetual
      attributes: half, newton on
      pair build: half/bin/atomonly/newton
      stencil: half/bin/3d
      bin: standard
Per MPI rank memory allocation (min/avg/max) = 7.651 | 7.651 | 7.651 Mbytes
   Step          Temp          PotEng         KinEng         TotEng           Lx             Ly             Lz             Yz             Xz             Xy            Pxx            Pyy            Pzz            Pyz            Pxz            Pxy      
         0  5.0000000000000e+02 -1.2963024168254e+04 2.5826176971000e+02 -1.2704762398544e+04 5.6118445715584e+01 5.9522600272707e+01 5.7275648817190e+01 0.0000000000000e+00 0.0000000000000e+00 0.0000000000000e+00 -9.4073237739547e+03 -9.3944953208742e+03 -9.3926495555010e+03 2.6852301683962e+00 2.4942032336874e+01 -1.6478278376264e+00
       100  3.3265537277486e+02 -1.2858953539918e+04 1.7182433055275e+02 -1.2687129209365e+04 5.6118445715584e+01 5.9522600272707e+01 5.7275648817190e+01 0.0000000000000e+00 0.0000000000000e+00 0.0000000000000e+00 1.1961987536633e+03 1.0444626249869e+03 8.4951220081612e+02 1.2232804916261e+01 -1.2538967038735e+02 1.0701257137674e+02
       200  3.3982028586170e+02 -1.2830774421056e+04 1.7552517682000e+02 -1.2655249244236e+04 5.6118445715584e+01 5.9522600272707e+01 5.7275648817190e+01 0.0000000000000e+00 0.0000000000000e+00 0.0000000000000e+00 5.8524930960728e+02 1.2192623794657e+03 8.4061038915299e+02 -2.5234955267422e+02 -6.3399028461514e+01 1.1499332751151e+02
       300  3.6536470055408e+02 -1.2807757168494e+04 1.8871946830932e+02 -1.2619037700185e+04 5.6118445715584e+01 5.9522600272707e+01 5.7275648817190e+01 0.0000000000000e+00 0.0000000000000e+00 0.0000000000000e+00 1.9249546218204e+03 2.4186455133593e+03 1.7938944272329e+03 -2.5420826470626e+02 -3.3486877762735e+01 1.2455432722902e+02
       400  4.0363821908306e+02 -1.2789603937509e+04 2.0848864156597e+02 -1.2581115295944e+04 5.6118445715584e+01 5.9522600272707e+01 5.7275648817190e+01 0.0000000000000e+00 0.0000000000000e+00 0.0000000000000e+00 2.5264433318666e+03 3.2469971173479e+03 2.3446026768803e+03 -2.3733051064690e+02 -1.3894137568180e+02 1.4167465172418e+02
       500  4.4268489705541e+02 -1.2772486906997e+04 2.2865716987484e+02 -1.2543829737122e+04 5.6118445715584e+01 5.9522600272707e+01 5.7275648817190e+01 0.0000000000000e+00 0.0000000000000e+00 0.0000000000000e+00 2.1570742267823e+03 3.0781920465365e+03 1.9919950688558e+03 -3.5025556402081e+02 4.3783039298375e+01 1.6574869995070e+02
       600  4.8086703857242e+02 -1.2757929315505e+04 2.4837914475384e+02 -1.2509550170752e+04 5.6118445715584e+01 5.9522600272707e+01 5.7275648817190e+01 0.0000000000000e+00 0.0000000000000e+00 0.0000000000000e+00 1.1299845519805e+03 1.8340336168724e+03 1.3360774792311e+03 -1.6513958792263e+02 -4.2074767434529e+01 -2.9750840743084e+01
       700  5.0565769054836e+02 -1.2742853217795e+04 2.6118410005698e+02 -1.2481669117738e+04 5.6118445715584e+01 5.9522600272707e+01 5.7275648817190e+01 0.0000000000000e+00 0.0000000000000e+00 0.0000000000000e+00 -2.0573048749772e+03 -1.6790857717762e+03 -2.0360007994182e+03 -2.3182031970585e+02 -1.0947366966186e+02 3.3096402538327e+01
       800  4.8812828002339e+02 -1.2713856656855e+04 2.5212974688868e+02 -1.2461726909966e+04 5.6118445715584e+01 5.9522600272707e+01 5.7275648817190e+01 0.0000000000000e+00 0.0000000000000e+00 0.0000000000000e+00 -6.6039361943149e+03 -5.9434737594225e+03 -6.4000336918614e+03 -2.1800898303408e+02 -7.2472539631796e+00 1.1282925882935e+02
       900  5.4402957296073e+02 -1.2721094729046e+04 2.8100408057483e+02 -1.2440090648472e+04 5.6118445715584e+01 5.9522600272707e+01 5.7275648817190e+01 0.0000000000000e+00 0.0000000000000e+00 0.0000000000000e+00 -3.3797006405972e+03 -3.6149623533525e+03 -3.5281215967398e+03 -1.4379604239987e+02 7.3016582435773e+00 -1.5183041453121e+02
      1000  5.1519659161765e+02 -1.2709106388434e+04 2.6611116699947e+02 -1.2442995221434e+04 5.6118445715584e+01 5.9522600272707e+01 5.7275648817190e+01 0.0000000000000e+00 0.0000000000000e+00 0.0000000000000e+00 1.0452361594414e+03 5.4173595104791e+02 6.5453552925714e+02 7.1999614347585e+01 9.1215419120036e+00 -1.9130260633154e+02
      1100  5.1354071351953e+02 -1.2731852563981e+04 2.6525586698338e+02 -1.2466596696998e+04 5.6118445715584e+01 5.9522600272707e+01 5.7275648817190e+01 0.0000000000000e+00 0.0000000000000e+00 0.0000000000000e+00 -1.9902743241249e+02 -3.4295448232504e+02 4.9424583724663e+01 1.1995262230301e+02 -9.8035340083671e+01 -9.4961764771527e+01
      1200  4.8838561091023e+02 -1.2743396327566e+04 2.5226266434915e+02 -1.2491133663217e+04 5.6118445715584e+01 5.9522600272707e+01 5.7275648817190e+01 0.0000000000000e+00 0.0000000000000e+00 0.0000000000000e+00 1.3584924931187e+03 6.5470831688432e+02 1.2732001536250e+03 2.2989091261776e+02 -1.1693132662766e+02 -4.8935146342194e+01
      1300  5.0308069586819e+02 -1.2760649872663e+04 2.5985302164371e+02 -1.2500796851020e+04 5.6118445715584e+01 5.9522600272707e+01 5.7275648817190e+01 0.0000000000000e+00 0.0000000000000e+00 0.0000000000000e+00 3.2116550350020e+03 2.3589246801934e+03 3.0190087442349e+03 2.9403587181289e+02 3.5673327098528e+01 -2.7455713583153e+01
      1400  4.8460338496221e+02 -1.2750281815645e+04 2.5030905561559e+02 -1.2499972760029e+04 5.6118445715584e+01 5.9522600272707e+01 5.7275648817190e+01 0.0000000000000e+00 0.0000000000000e+00 0.0000000000000e+00 3.9701277557030e+03 3.1051707889310e+03 3.8524819502838e+03 4.6359445298028e+02 -3.1911161649895e+01 -2.6544319843291e+01
      1500  5.0663607032576e+02 -1.2749983009709e+04 2.6168945624250e+02 -1.2488293553466e+04 5.6118445715584e+01 5.9522600272707e+01 5.7275648817190e+01 0.0000000000000e+00 0.0000000000000e+00 0.0000000000000e+00 2.1064464483515e+03 1.9268859366584e+03 2.4096816396099e+03 1.4707945965827e+02 4.6541753801992e+01 -2.2510640953941e+01
      1600  4.8340458212067e+02 -1.2728337516511e+04 2.4968984572882e+02 -1.2478647670782e+04 5.6118445715584e+01 5.9522600272707e+01 5.7275648817190e+01 0.0000000000000e+00 0.0000000000000e+00 0.0000000000000e+00 -2.8705443136466e+03 -3.0712458874226e+03 -2.6054376028585e+03 5.5525177833256e+00 6.0940296724656e+01 -1.1072731194220e+02
      1700  5.0491374432600e+02 -1.2724844884888e+04 2.6079983432107e+02 -1.2464045050567e+04 5.6118445715584e+01 5.9522600272707e+01 5.7275648817190e+01 0.0000000000000e+00 0.0000000000000e+00 0.0000000000000e+00 -3.0556132238291e+03 -3.4683676055236e+03 -3.1266714242148e+03 4.8234024453564e+01 1.2896501715933e+02 -6.0541579028551e+01
      1800  5.0706255308750e+02 -1.2717604004953e+04 2.6190974462809e+02 -1.2455694260325e+04 5.6118445715584e+01 5.9522600272707e+01 5.7275648817190e+01 0.0000000000000e+00 0.0000000000000e+00 0.0000000000000e+00 -7.3875663790720e+02 -6.4350202176746e+02 -6.8251349048243e+02 2.1075672002925e+02 3.5634167138969e+01 -8.5197210105433e+01
      1900  5.1717458383234e+02 -1.2724367167722e+04 2.6713284653915e+02 -1.2457234321182e+04 5.6118445715584e+01 5.9522600272707e+01 5.7275648817190e+01 0.0000000000000e+00 0.0000000000000e+00 0.0000000000000e+00 -2.1670637985767e+03 -2.5457843101653e+03 -2.4884275290813e+03 2.0357672455803e+02 -2.9936255924788e+01 -2.4136106965530e+01
      2000  5.0422195249397e+02 -1.2730261730538e+04 2.6044250755545e+02 -1.2469819222982e+04 5.6118445715584e+01 5.9522600272707e+01 5.7275648817190e+01 0.0000000000000e+00 0.0000000000000e+00 0.0000000000000e+00 -2.1801933594138e+03 -1.7144954161561e+03 -2.0546701708620e+03 -5.0990368307092e+01 1.1660171269328e+02 1.1110405420924e+02
      2100  5.1031740989670e+02 -1.2745727241278e+04 2.6359095478749e+02 -1.2482136286491e+04 5.6118445715584e+01 5.9522600272707e+01 5.7275648817190e+01 0.0000000000000e+00 0.0000000000000e+00 0.0000000000000e+00 3.3288002266457e+02 1.1575612062604e+03 4.6693750687298e+02 -7.4622846849782e+01 6.1347843912077e+01 1.8303889579457e+02
      2200  4.8585279006093e+02 -1.2746814956346e+04 2.5095440275935e+02 -1.2495860553587e+04 5.6118445715584e+01 5.9522600272707e+01 5.7275648817190e+01 0.0000000000000e+00 0.0000000000000e+00 0.0000000000000e+00 3.1427971525143e+03 3.7876385538934e+03 3.1852117552408e+03 -3.5507940435331e+01 -3.2177118913384e+01 1.1496014268013e+02
      2300  4.9458793562340e+02 -1.2753532178642e+04 2.5546631106263e+02 -1.2498065867579e+04 5.6118445715584e+01 5.9522600272707e+01 5.7275648817190e+01 0.0000000000000e+00 0.0000000000000e+00 0.0000000000000e+00 3.6988273478127e+03 4.1932370119989e+03 3.6739271182973e+03 -3.2117378406744e+01 1.0193410202348e+02 2.2030940127218e+02
      2400  4.8863361709994e+02 -1.2744814463337e+04 2.5239076538406e+02 -1.2492423697953e+04 5.6118445715584e+01 5.9522600272707e+01 5.7275648817190e+01 0.0000000000000e+00 0.0000000000000e+00 0.0000000000000e+00 5.9958263814251e+02 1.1563468209470e+03 5.4074318549847e+02 -2.5750399119525e+02 6.2707322835605e+01 7.1706589199178e+01
      2500  4.9073902495890e+02 -1.2735167069212e+04 2.5347825810329e+02 -1.2481688811108e+04 5.6118445715584e+01 5.9522600272707e+01 5.7275648817190e+01 0.0000000000000e+00 0.0000000000000e+00 0.0000000000000e+00 -1.2694164481629e+03 -7.3023066937899e+02 -1.1633941150112e+03 -4.1169653420039e+02 -7.7837954676756e+01 -1.5571696805317e+01
      2600  5.0111357524997e+02 -1.2729888416285e+04 2.5883695753952e+02 -1.2471051458746e+04 5.6118445715584e+01 5.9522600272707e+01 5.7275648817190e+01 0.0000000000000e+00 0.0000000000000e+00 0.0000000000000e+00 -2.0254182543680e+02 2.9500120363086e+02 -4.0799461379274e+02 -2.1324403863313e+02 8.1469324044042e+01 -1.1255639075349e+02
      2700  5.0963466875488e+02 -1.2727412872309e+04 2.6323830291641e+02 -1.2464174569392e+04 5.6118445715584e+01 5.9522600272707e+01 5.7275648817190e+01 0.0000000000000e+00 0.0000000000000e+00 0.0000000000000e+00 -2.0867553835835e+03 -2.1242176613714e+03 -2.0740180636886e+03 -3.0113589562698e+02 -1.9407741081815e+00 -1.6241587041238e+02
      2800  5.0968673006611e+02 -1.2723786893748e+04 2.6326519380915e+02 -1.2460521699939e+04 5.6118445715584e+01 5.9522600272707e+01 5.7275648817190e+01 0.0000000000000e+00 0.0000000000000e+00 0.0000000000000e+00 -3.7867313078644e+03 -4.2766523438423e+03 -3.8962352951551e+03 -5.1743335693127e+01 -2.3944480615423e+02 -3.2520385864552e+02
      2900  5.1503164187348e+02 -1.2725287494822e+04 2.6602596657378e+02 -1.2459261528248e+04 5.6118445715584e+01 5.9522600272707e+01 5.7275648817190e+01 0.0000000000000e+00 0.0000000000000e+00 0.0000000000000e+00 -1.7923948524140e+03 -2.1676960469065e+03 -1.7352120209705e+03 -3.6007525737308e+01 -1.2012342188516e+02 -1.3444132734833e+02
      3000  5.1219956764097e+02 -1.2732214617916e+04 2.6456313356731e+02 -1.2467651484349e+04 5.6118445715584e+01 5.9522600272707e+01 5.7275648817190e+01 0.0000000000000e+00 0.0000000000000e+00 0.0000000000000e+00 9.5399860801080e+02 7.6597171811577e+02 1.1498831051690e+03 4.0185042475707e+01 -1.2361334736459e+02 -1.7144594837690e+02
      3100  4.9431563624297e+02 -1.2741144270895e+04 2.5532566202287e+02 -1.2485818608872e+04 5.6118445715584e+01 5.9522600272707e+01 5.7275648817190e+01 0.0000000000000e+00 0.0000000000000e+00 0.0000000000000e+00 3.4033591425977e+03 2.4845949883268e+03 3.4102283479606e+03 3.3027000540444e+02 -1.3548329859807e+02 1.7853975025782e+01
      3200  4.9129113411708e+02 -1.2751892662171e+04 2.5376343547982e+02 -1.2498129226691e+04 5.6118445715584e+01 5.9522600272707e+01 5.7275648817190e+01 0.0000000000000e+00 0.0000000000000e+00 0.0000000000000e+00 2.5668763981762e+03 2.0340211918483e+03 2.6481757379669e+03 5.5393593958793e+01 6.0048975030463e+01 -5.1326600358333e+01
      3300  4.8874170281105e+02 -1.2750671137786e+04 2.5244659419812e+02 -1.2498224543588e+04 5.6118445715584e+01 5.9522600272707e+01 5.7275648817190e+01 0.0000000000000e+00 0.0000000000000e+00 0.0000000000000e+00 8.7198666542394e+02 1.6579756056026e+02 5.5739350350111e+02 1.5145064394107e+02 -5.3013822996023e+00 1.4713137081696e+01
      3400  4.9515754437745e+02 -1.2741555811582e+04 2.5576052739236e+02 -1.2485795284189e+04 5.6118445715584e+01 5.9522600272707e+01 5.7275648817190e+01 0.0000000000000e+00 0.0000000000000e+00 0.0000000000000e+00 1.2009570746292e+03 6.8072229356702e+02 1.0644448763682e+03 9.7946252249241e+01 -3.0390736184448e+01 -2.2496251953474e+01
      3500  5.0652265926677e+02 -1.2735650798854e+04 2.6163087676090e+02 -1.2474019922093e+04 5.6118445715584e+01 5.9522600272707e+01 5.7275648817190e+01 0.0000000000000e+00 0.0000000000000e+00 0.0000000000000e+00 2.5607344222619e+02 -1.3931221094256e+02 3.1223378729143e+02 6.4652539215395e+01 6.9430637639089e+01 -2.7906886872955e+01
      3600  5.0036486004112e+02 -1.2725268096218e+04 2.5845022850983e+02 -1.2466817867709e+04 5.6118445715584e+01 5.9522600272707e+01 5.7275648817190e+01 0.0000000000000e+00 0.0000000000000e+00 0.0000000000000e+00 -3.1352893308811e+03 -3.1542454046153e+03 -3.2224637447164e+03 -6.2905649170893e+01 5.3923936728357e+01 -1.3200631022202e+01
      3700  4.8847656722764e+02 -1.2714712594694e+04 2.5230964542815e+02 -1.2462402949266e+04 5.6118445715584e+01 5.9522600272707e+01 5.7275648817190e+01 0.0000000000000e+00 0.0000000000000e+00 0.0000000000000e+00 -2.9758723208565e+03 -2.6218237355299e+03 -3.1252054808087e+03 -1.9943563331859e+02 1.7251411503900e+02 4.0921061638601e+01
      3800  5.1006548390583e+02 -1.2721584658454e+04 2.6346082908302e+02 -1.2458123829371e+04 5.6118445715584e+01 5.9522600272707e+01 5.7275648817190e+01 0.0000000000000e+00 0.0000000000000e+00 0.0000000000000e+00 -1.0620537798257e+03 -5.9066899610730e+02 -1.0032976745065e+03 -4.7222127810115e+01 1.2522506523690e+00 1.0843537156480e+02
      3900  5.0608339956360e+02 -1.2727696899185e+04 2.6140398878430e+02 -1.2466292910400e+04 5.6118445715584e+01 5.9522600272707e+01 5.7275648817190e+01 0.0000000000000e+00 0.0000000000000e+00 0.0000000000000e+00 4.8252656583558e+02 8.2591626536018e+02 4.0074002654557e+02 -8.5288686682504e+00 1.5141118009065e+02 3.6215909857346e+01
      4000  5.0769226199763e+02 -1.2743592945076e+04 2.6223500410316e+02 -1.2481357940973e+04 5.6118445715584e+01 5.9522600272707e+01 5.7275648817190e+01 0.0000000000000e+00 0.0000000000000e+00 0.0000000000000e+00 1.0984348874198e+03 1.7876705708212e+03 1.1653684525582e+03 2.6640620816638e+02 3.9333058050432e+00 8.2952958603986e+01
      4100  4.8773893211882e+02 -1.2744574196958e+04 2.5192863953094e+02 -1.2492645557427e+04 5.6118445715584e+01 5.9522600272707e+01 5.7275648817190e+01 0.0000000000000e+00 0.0000000000000e+00 0.0000000000000e+00 4.9177327344639e+02 1.5783097677052e+03 9.4165816030218e+02 2.0630190546643e+02 -1.9056965181189e+00 1.6521725428404e+02
      4200  4.9030194022302e+02 -1.2744046987344e+04 2.5325249354849e+02 -1.2490794493796e+04 5.6118445715584e+01 5.9522600272707e+01 5.7275648817190e+01 0.0000000000000e+00 0.0000000000000e+00 0.0000000000000e+00 1.3433967397879e+03 2.1400524730309e+03 1.5968845115965e+03 2.7536007459609e+02 9.7745218583871e+01 1.1994620228501e+02
      4300  5.0293985630933e+02 -1.2742209244432e+04 2.5978027469628e+02 -1.2482428969736e+04 5.6118445715584e+01 5.9522600272707e+01 5.7275648817190e+01 0.0000000000000e+00 0.0000000000000e+00 0.0000000000000e+00 2.2923641797153e+03 2.7730606008092e+03 2.1606303191706e+03 7.2784824960158e+00 4.1528229529258e+01 -3.1390816156549e+01
      4400  5.0288425593470e+02 -1.2736331156145e+04 2.5975155579398e+02 -1.2476579600351e+04 5.6118445715584e+01 5.9522600272707e+01 5.7275648817190e+01 0.0000000000000e+00 0.0000000000000e+00 0.0000000000000e+00 -7.8789168468893e+02 -4.8483189446209e+02 -9.4188324688629e+02 -1.3504406326469e+02 1.4708450414183e+02 1.1183929852870e+02
      4500  4.9920806634448e+02 -1.2731342632164e+04 2.5785271733527e+02 -1.2473489914828e+04 5.6118445715584e+01 5.9522600272707e+01 5.7275648817190e+01 0.0000000000000e+00 0.0000000000000e+00 0.0000000000000e+00 -2.1035923733894e+03 -2.1379603836554e+03 -2.1868430008278e+03 -2.1671407345339e+02 -4.9729265708416e+01 4.2868003691927e+01
      4600  5.0751722115156e+02 -1.2729828819459e+04 2.6214459138580e+02 -1.2467684228073e+04 5.6118445715584e+01 5.9522600272707e+01 5.7275648817190e+01 0.0000000000000e+00 0.0000000000000e+00 0.0000000000000e+00 -1.6733146724075e+03 -2.0751449576968e+03 -2.1247320217073e+03 -2.1254649362104e+02 -2.1174152603504e+02 -2.3566251319613e+01
      4700  5.0156482699706e+02 -1.2724047772604e+04 2.5907003968910e+02 -1.2464977732915e+04 5.6118445715584e+01 5.9522600272707e+01 5.7275648817190e+01 0.0000000000000e+00 0.0000000000000e+00 0.0000000000000e+00 -9.3811107135531e+02 -1.2734256759940e+03 -8.9934853850688e+02 -3.5166619989077e+02 -4.6968281251648e+01 -1.6114325572413e+02
      4800  5.1489037558797e+02 -1.2733049551800e+04 2.6595299921199e+02 -1.2467096552588e+04 5.6118445715584e+01 5.9522600272707e+01 5.7275648817190e+01 0.0000000000000e+00 0.0000000000000e+00 0.0000000000000e+00 -1.0813296193129e+02 -6.5252327903291e+02 -2.5527559662604e+02 -2.0627058708590e+02 -4.4746711117371e+00 1.0940698497357e+02
      4900  5.0500905013297e+02 -1.2737077462845e+04 2.6084906201381e+02 -1.2476228400831e+04 5.6118445715584e+01 5.9522600272707e+01 5.7275648817190e+01 0.0000000000000e+00 0.0000000000000e+00 0.0000000000000e+00 3.5320892304631e+02 -6.2103057404465e+02 2.3836894903637e+02 -5.1346870672463e+01 5.4559039689222e+01 -2.1730156922378e+02
      5000  4.9535343074834e+02 -1.2740570415686e+04 2.5586170731397e+02 -1.2484708708372e+04 5.6118445715584e+01 5.9522600272707e+01 5.7275648817190e+01 0.0000000000000e+00 0.0000000000000e+00 0.0000000000000e+00 8.8692930262082e+02 3.8544069942303e+02 1.3182214367589e+03 -2.8931192612355e+00 -5.8876861401926e+01 -1.1672639890342e+02
      5100  5.0025346183272e+02 -1.2746975722539e+04 2.5839268871294e+02 -1.2488583033826e+04 5.6118445715584e+01 5.9522600272707e+01 5.7275648817190e+01 0.0000000000000e+00 0.0000000000000e+00 0.0000000000000e+00 3.1187664725856e+03 2.3887888112656e+03 3.3087526767106e+03 2.2894720074593e+02 -9.3135722786311e+01 -6.5655615761483e+01
      5200  5.0358417153660e+02 -1.2749177303696e+04 2.6011307867797e+02 -1.2489064225018e+04 5.6118445715584e+01 5.9522600272707e+01 5.7275648817190e+01 0.0000000000000e+00 0.0000000000000e+00 0.0000000000000e+00 1.5068931588811e+03 1.5296920140594e+03 1.6741081496710e+03 2.4290393753832e+02 -1.5708998511539e+02 -8.2239089445596e+01
      5300  4.8671049030625e+02 -1.2736722002320e+04 2.5139742512583e+02 -1.2485324577195e+04 5.6118445715584e+01 5.9522600272707e+01 5.7275648817190e+01 0.0000000000000e+00 0.0000000000000e+00 0.0000000000000e+00 -7.6401846317740e+02 -1.3492886373832e+03 -1.0021365148065e+03 1.4577735960049e+02 4.8913230996093e+01 -1.7176376157279e+02
      5400  5.0156843436815e+02 -1.2735693640228e+04 2.5907190298118e+02 -1.2476621737247e+04 5.6118445715584e+01 5.9522600272707e+01 5.7275648817190e+01 0.0000000000000e+00 0.0000000000000e+00 0.0000000000000e+00 -7.7819204752423e+02 -8.9817233662386e+02 -8.1292564511835e+02 7.9478198775407e+01 5.9329594707019e+01 6.2635921936986e+01
      5500  4.9957313105947e+02 -1.2728208938937e+04 2.5804128185397e+02 -1.2470167657083e+04 5.6118445715584e+01 5.9522600272707e+01 5.7275648817190e+01 0.0000000000000e+00 0.0000000000000e+00 0.0000000000000e+00 -1.1890914259695e+03 -1.1564506970196e+03 -1.0861270892360e+03 1.4744950574695e+02 8.4424010850917e+01 -1.3994191046389e+02
      5600  5.0247335041467e+02 -1.2725009150331e+04 2.5953931342041e+02 -1.2465469836910e+04 5.6118445715584e+01 5.9522600272707e+01 5.7275648817190e+01 0.0000000000000e+00 0.0000000000000e+00 0.0000000000000e+00 -1.1673966494233e+03 -1.1134033916897e+03 -1.5669410275128e+03 -2.8345880312631e+02 7.0596528038162e+01 7.1900436020803e+01
      5700  4.9727765182507e+02 -1.2723886070038e+04 2.5685561279515e+02 -1.2467030457243e+04 5.6118445715584e+01 5.9522600272707e+01 5.7275648817190e+01 0.0000000000000e+00 0.0000000000000e+00 0.0000000000000e+00 -1.5298632465420e+03 -1.5254075685243e+03 -1.7793716332387e+03 -2.1795031023364e+02 7.8026654158260e+01 6.7030663109967e+01
      5800  5.0026947812836e+02 -1.2731723844483e+04 2.5840096150666e+02 -1.2473322882977e+04 5.6118445715584e+01 5.9522600272707e+01 5.7275648817190e+01 0.0000000000000e+00 0.0000000000000e+00 0.0000000000000e+00 -5.0785960836536e+02 -2.4823303545339e+02 -7.9130451301610e+02 -1.2567128751878e+02 1.4791409914505e+02 1.9328610485097e+02
      5900  5.1479412759771e+02 -1.2744272885510e+04 2.6590328485940e+02 -1.2478369600651e+04 5.6118445715584e+01 5.9522600272707e+01 5.7275648817190e+01 0.0000000000000e+00 0.0000000000000e+00 0.0000000000000e+00 1.5899917665957e+03 1.8972308436661e+03 1.4047005841077e+03 1.8943374992890e+02 1.9293039267432e+01 6.1048503797127e+01
      6000  5.0275858366815e+02 -1.2744339995344e+04 2.5968664311006e+02 -1.2484653352234e+04 5.6118445715584e+01 5.9522600272707e+01 5.7275648817190e+01 0.0000000000000e+00 0.0000000000000e+00 0.0000000000000e+00 2.3292805751192e+03 3.3711048090986e+03 2.6591658642043e+03 4.4452405219373e+02 5.3380563029386e+01 1.7368207696784e+02
      6100  4.9693843337714e+02 -1.2744551245241e+04 2.5668039848179e+02 -1.2487870846759e+04 5.6118445715584e+01 5.9522600272707e+01 5.7275648817190e+01 0.0000000000000e+00 0.0000000000000e+00 0.0000000000000e+00 1.1822805580516e+02 7.7878020130757e+02 4.1898934748795e+02 1.9114511669385e+01 -3.8861250101646e+01 8.0256183171086e+01
      6200  4.9697499137048e+02 -1.2740134849753e+04 2.5669928154591e+02 -1.2483435568207e+04 5.6118445715584e+01 5.9522600272707e+01 5.7275648817190e+01 0.0000000000000e+00 0.0000000000000e+00 0.0000000000000e+00 -2.7273355350246e+02 2.0296424482571e+02 -8.5289096062441e+01 -2.8304258681494e+01 8.7031476865607e+01 5.2807524972194e+01
      6300  5.0227677056203e+02 -1.2738662758290e+04 2.5943777529915e+02 -1.2479224982991e+04 5.6118445715584e+01 5.9522600272707e+01 5.7275648817190e+01 0.0000000000000e+00 0.0000000000000e+00 0.0000000000000e+00 -1.9486093721585e+02 2.9296201606211e+02 9.9113382581806e+00 2.4841323975489e+02 7.3262893721127e+01 1.4848719488801e+02
      6400  5.0515862695309e+02 -1.2738287340332e+04 2.6092632196235e+02 -1.2477361018370e+04 5.6118445715584e+01 5.9522600272707e+01 5.7275648817190e+01 0.0000000000000e+00 0.0000000000000e+00 0.0000000000000e+00 -1.2864949556246e+03 -6.6746759325141e+02 -9.5668632883186e+02 1.0861298658997e+01 -4.5127310979157e+01 4.9410222699605e+01
      6500  4.9741808526959e+02 -1.2731741469999e+04 2.5692814997497e+02 -1.2474813320024e+04 5.6118445715584e+01 5.9522600272707e+01 5.7275648817190e+01 0.0000000000000e+00 0.0000000000000e+00 0.0000000000000e+00 -1.5538362080360e+03 -2.0926014849972e+03 -2.1265134026733e+03 -2.5047464765125e+02 2.6678394447238e+02 -1.7520863803117e+02
      6600  4.9763561191912e+02 -1.2723485862698e+04 2.5704050760990e+02 -1.2466445355088e+04 5.6118445715584e+01 5.9522600272707e+01 5.7275648817190e+01 0.0000000000000e+00 0.0000000000000e+00 0.0000000000000e+00 -1.2317712887036e+03 -1.8004478493288e+03 -1.4078735072267e+03 -7.6170361303091e+01 2.0709318935556e+02 7.4275054694752e+01
      6700  5.1316523156186e+02 -1.2729525949466e+04 2.6506192171362e+02 -1.2464464027752e+04 5.6118445715584e+01 5.9522600272707e+01 5.7275648817190e+01 0.0000000000000e+00 0.0000000000000e+00 0.0000000000000e+00 3.6082220793480e+02 -1.9681962991712e+02 1.8688246302129e+02 -2.5378583278636e+02 2.4231398151128e+02 -1.0720865133241e+02
      6800  5.0507619541313e+02 -1.2732916525193e+04 2.6088374413158e+02 -1.2472032781062e+04 5.6118445715584e+01 5.9522600272707e+01 5.7275648817190e+01 0.0000000000000e+00 0.0000000000000e+00 0.0000000000000e+00 1.6894598083773e+03 9.9514255491864e+02 1.5044459809236e+03 -1.3474341957389e+02 9.0363777977860e+00 -1.1471090487913e+02
      6900  5.0579841462996e+02 -1.2740323456608e+04 2.6125678735769e+02 -1.2479066669250e+04 5.6118445715584e+01 5.9522600272707e+01 5.7275648817190e+01 0.0000000000000e+00 0.0000000000000e+00 0.0000000000000e+00 1.6567358005890e+03 5.9831782997412e+02 1.4849246972549e+03 1.2628250853215e+02 -3.0591928454779e+02 -2.3293904840512e+02
      7000  4.9437169215269e+02 -1.2739742396490e+04 2.5535461621976e+02 -1.2484387780270e+04 5.6118445715584e+01 5.9522600272707e+01 5.7275648817190e+01 0.0000000000000e+00 0.0000000000000e+00 0.0000000000000e+00 6.0587761143581e+02 -2.5155092880562e+02 5.6995921669267e+02 -7.5038060222205e+01 -1.1826456165978e+02 -2.4431893836512e+02
      7100  5.0495250692711e+02 -1.2743775441004e+04 2.6081985611699e+02 -1.2482955584887e+04 5.6118445715584e+01 5.9522600272707e+01 5.7275648817190e+01 0.0000000000000e+00 0.0000000000000e+00 0.0000000000000e+00 6.7775538012996e+02 3.7823232467609e+02 1.0670967282296e+03 -3.9801180749772e+01 -2.7930810938292e+02 -1.7928031042882e+02
      7200  5.0475573876676e+02 -1.2738949321466e+04 2.6071822073036e+02 -1.2478231100735e+04 5.6118445715584e+01 5.9522600272707e+01 5.7275648817190e+01 0.0000000000000e+00 0.0000000000000e+00 0.0000000000000e+00 4.7269083491909e+02 -5.3359772284298e+01 7.1244875449713e+02 -1.4101148539857e+01 -1.6569150275769e+02 -8.1125582841324e+01
      7300  5.0111706731573e+02 -1.2731318257479e+04 2.5883876127369e+02 -1.2472479496205e+04 5.6118445715584e+01 5.9522600272707e+01 5.7275648817190e+01 0.0000000000000e+00 0.0000000000000e+00 0.0000000000000e+00 -7.3550337572141e+02 -6.1127702711428e+02 -7.2768477650362e+02 5.0993960881091e+01 -1.7893791601649e+01 2.5316510446619e+01
      7400  4.9964963518080e+02 -1.2725348578666e+04 2.5808079803350e+02 -1.2467267780632e+04 5.6118445715584e+01 5.9522600272707e+01 5.7275648817190e+01 0.0000000000000e+00 0.0000000000000e+00 0.0000000000000e+00 -1.7640890850159e+03 -1.6029894349322e+03 -1.6653409111575e+03 4.4024998832440e+01 -1.4758112347143e+02 4.3720472259648e+01
      7500  5.0867995136002e+02 -1.2725302313678e+04 2.6274516890847e+02 -1.2462557144769e+04 5.6118445715584e+01 5.9522600272707e+01 5.7275648817190e+01 0.0000000000000e+00 0.0000000000000e+00 0.0000000000000e+00 -8.5693777809394e+02 -3.3378561503917e+02 -9.5177355917052e+02 -7.8828509852581e+01 1.1861378334923e+02 4.9634550907428e+02
      7600  5.2034687206366e+02 -1.2729370417216e+04 2.6877140808445e+02 -1.2460599009132e+04 5.6118445715584e+01 5.9522600272707e+01 5.7275648817190e+01 0.0000000000000e+00 0.0000000000000e+00 0.0000000000000e+00 -4.9769687544015e+01 4.5511142227184e+02 -4.0084832783940e+02 1.1680596994728e+02 -1.7069926169488e+00 2.5646484707636e+02
      7700  5.0620514705470e+02 -1.2732307630010e+04 2.6146687422931e+02 -1.2470840755780e+04 5.6118445715584e+01 5.9522600272707e+01 5.7275648817190e+01 0.0000000000000e+00 0.0000000000000e+00 0.0000000000000e+00 6.0449931989012e+02 8.7919604557130e+02 2.9085047171099e+02 -8.4243408912430e+00 4.5088695727545e+01 8.4389917316908e+01
      7800  4.9783149623444e+02 -1.2734521829080e+04 2.5714168646977e+02 -1.2477380142610e+04 5.6118445715584e+01 5.9522600272707e+01 5.7275648817190e+01 0.0000000000000e+00 0.0000000000000e+00 0.0000000000000e+00 -1.6365158404511e+02 5.2073459367930e+02 -2.0557730612777e+02 -5.0222166544006e+01 2.3085174732948e+02 4.1956264403507e+01
      7900  4.9439426521498e+02 -1.2737785649204e+04 2.5536627573779e+02 -1.2482419373466e+04 5.6118445715584e+01 5.9522600272707e+01 5.7275648817190e+01 0.0000000000000e+00 0.0000000000000e+00 0.0000000000000e+00 5.1926675948575e+02 9.1291318147671e+02 7.3569504113424e+02 2.0643032631212e+02 2.6392895524682e+01 -1.2771588772398e+02
      8000  4.9018594386357e+02 -1.2739267000024e+04 2.5319257869834e+02 -1.2486074421326e+04 5.6118445715584e+01 5.9522600272707e+01 5.7275648817190e+01 0.0000000000000e+00 0.0000000000000e+00 0.0000000000000e+00 1.0896469069494e+03 1.4116759153289e+03 1.5577226843902e+03 7.6455984127181e+01 1.9459723281211e+02 1.5176081125068e+01
      8100  4.9586263959886e+02 -1.2740265938298e+04 2.5612472567175e+02 -1.2484141212627e+04 5.6118445715584e+01 5.9522600272707e+01 5.7275648817190e+01 0.0000000000000e+00 0.0000000000000e+00 0.0000000000000e+00 6.3004025669879e+00 5.7857707593539e+02 3.4365308042553e+02 -4.6875648530546e+01 5.4207611730580e+01 6.6039679994418e+01
      8200  4.9708447165923e+02 -1.2733555627781e+04 2.5675583069215e+02 -1.2476799797089e+04 5.6118445715584e+01 5.9522600272707e+01 5.7275648817190e+01 0.0000000000000e+00 0.0000000000000e+00 0.0000000000000e+00 -9.6854542216353e+02 -4.8124095529067e+02 -7.6567531796962e+02 1.6295773855273e+02 -1.0585608594702e+02 -6.3388884812750e+01
      8300  5.0401432181329e+02 -1.2733589995855e+04 2.6033526142137e+02 -1.2473254734434e+04 5.6118445715584e+01 5.9522600272707e+01 5.7275648817190e+01 0.0000000000000e+00 0.0000000000000e+00 0.0000000000000e+00 -7.2548107301140e+02 -6.3782345549383e+02 -7.3577341073749e+02 1.3227623172932e+01 -1.1695496552405e+02 6.3387887787684e+01
      8400  5.0507110270841e+02 -1.2733334974474e+04 2.6088111362971e+02 -1.2472453860845e+04 5.6118445715584e+01 5.9522600272707e+01 5.7275648817190e+01 0.0000000000000e+00 0.0000000000000e+00 0.0000000000000e+00 -8.5591588344512e+02 -9.5810541721929e+02 -7.9335121004908e+02 -2.1667360423857e+02 -1.1760488082912e+01 -5.7634725436634e+01
      8500  4.9589389162923e+02 -1.2730669565633e+04 2.5614086808109e+02 -1.2474528697552e+04 5.6118445715584e+01 5.9522600272707e+01 5.7275648817190e+01 0.0000000000000e+00 0.0000000000000e+00 0.0000000000000e+00 -2.0514003766129e+02 -7.5834218593810e+02 -4.3991404029182e+02 -6.1866026749785e+01 -1.1420997074414e+02 9.6374505779558e+01
      8600  4.9581165880041e+02 -1.2737178445365e+04 2.5609839288929e+02 -1.2481080052476e+04 5.6118445715584e+01 5.9522600272707e+01 5.7275648817190e+01 0.0000000000000e+00 0.0000000000000e+00 0.0000000000000e+00 -2.0908253483697e+02 -8.4533471958762e+02 -5.8783310633100e+02 1.4566644822461e+01 6.8700963659932e+01 -1.4477184102445e+02
      8700  4.9965922233441e+02 -1.2745192405247e+04 2.5808575002401e+02 -1.2487106655222e+04 5.6118445715584e+01 5.9522600272707e+01 5.7275648817190e+01 0.0000000000000e+00 0.0000000000000e+00 0.0000000000000e+00 5.5958115119651e+02 -3.0189300355391e+01 4.0682505387682e+02 -9.0127819894150e+01 -1.1299721200761e+02 -1.3452279738046e+02
      8800  5.0289536214001e+02 -1.2744909968038e+04 2.5975729241046e+02 -1.2485152675628e+04 5.6118445715584e+01 5.9522600272707e+01 5.7275648817190e+01 0.0000000000000e+00 0.0000000000000e+00 0.0000000000000e+00 1.6491774268054e+03 8.6081297145255e+02 1.3731336715948e+03 -1.3121775335008e+02 8.6818309909090e+01 -1.4931916353358e+02
      8900  4.9427102916720e+02 -1.2737437357518e+04 2.5530262141821e+02 -1.2482134736099e+04 5.6118445715584e+01 5.9522600272707e+01 5.7275648817190e+01 0.0000000000000e+00 0.0000000000000e+00 0.0000000000000e+00 1.8416973760712e+03 9.4803068679527e+02 1.6126319530495e+03 -1.8084590263303e+02 4.2102871559395e+01 -1.4098711834360e+02
      9000  5.0160338574628e+02 -1.2736647927440e+04 2.5908995619073e+02 -1.2477557971250e+04 5.6118445715584e+01 5.9522600272707e+01 5.7275648817190e+01 0.0000000000000e+00 0.0000000000000e+00 0.0000000000000e+00 1.4975397187884e+02 -4.9294563545353e+02 3.1412985408363e+02 8.3868875023201e+01 -7.3390619086070e+00 -1.4510120654637e+02
      9100  5.0216283618547e+02 -1.2733205061929e+04 2.5937892551171e+02 -1.2473826136417e+04 5.6118445715584e+01 5.9522600272707e+01 5.7275648817190e+01 0.0000000000000e+00 0.0000000000000e+00 0.0000000000000e+00 -1.6309448446517e+02 -4.4577107357781e+02 -3.1324971300154e+02 1.5669069850759e+02 -7.3400420774322e+01 -1.3072707862724e+02
      9200  5.0998114970622e+02 -1.2726620543248e+04 2.6341726848374e+02 -1.2463203274764e+04 5.6118445715584e+01 5.9522600272707e+01 5.7275648817190e+01 0.0000000000000e+00 0.0000000000000e+00 0.0000000000000e+00 -2.9353636390450e+02 -3.5296496455544e+02 -1.8647582443279e+02 9.3393652061521e+01 -7.7929440819714e+01 2.4371586319514e+01
      9300  5.0378493884677e+02 -1.2724994237207e+04 2.6021677971962e+02 -1.2464777457487e+04 5.6118445715584e+01 5.9522600272707e+01 5.7275648817190e+01 0.0000000000000e+00 0.0000000000000e+00 0.0000000000000e+00 -9.6410546878007e+02 -6.9005365958610e+02 -8.4379993736194e+02 8.9559720264495e+01 -1.0630789525222e+02 2.1321431988385e+01
      9400  5.1163924084834e+02 -1.2735080648281e+04 2.6427371158915e+02 -1.2470806936692e+04 5.6118445715584e+01 5.9522600272707e+01 5.7275648817190e+01 0.0000000000000e+00 0.0000000000000e+00 0.0000000000000e+00 -1.3949145920645e+03 -4.8698262052004e+02 -1.1985763159614e+03 3.9227242480119e+01 4.8042063463541e+01 2.3912033596510e+02
      9500  4.9140659859944e+02 -1.2728517729619e+04 2.5382307560293e+02 -1.2474694654017e+04 5.6118445715584e+01 5.9522600272707e+01 5.7275648817190e+01 0.0000000000000e+00 0.0000000000000e+00 0.0000000000000e+00 -9.9418790143227e+02 -4.4423396052180e+02 -1.1365150579092e+03 -4.0557791755171e+01 4.4570508877403e+01 2.1070830462967e+02
      9600  5.0522440983015e+02 -1.2739445861905e+04 2.6096030036685e+02 -1.2478485561538e+04 5.6118445715584e+01 5.9522600272707e+01 5.7275648817190e+01 0.0000000000000e+00 0.0000000000000e+00 0.0000000000000e+00 3.0012361240609e+02 7.6701937439870e+02 3.3640874315037e+02 -1.4424260069335e+00 1.3048125314756e+01 8.6063209012786e+01
      9700  5.0341596280055e+02 -1.2742192973640e+04 2.6002619490627e+02 -1.2482166778734e+04 5.6118445715584e+01 5.9522600272707e+01 5.7275648817190e+01 0.0000000000000e+00 0.0000000000000e+00 0.0000000000000e+00 1.0376397312711e+03 1.7469117582368e+03 1.0184486808507e+03 -2.1355797154698e+01 1.0006062081242e+02 2.6802430658128e+02
      9800  5.0387834673124e+02 -1.2743132981971e+04 2.6026502709072e+02 -1.2482867954881e+04 5.6118445715584e+01 5.9522600272707e+01 5.7275648817190e+01 0.0000000000000e+00 0.0000000000000e+00 0.0000000000000e+00 6.3830846821579e+02 1.3536729793600e+03 7.2252840962159e+02 -1.8290525474022e+02 2.6920544973676e+01 1.3502521484098e+02
      9900  5.0102911815673e+02 -1.2741608022836e+04 2.5879333346280e+02 -1.2482814689373e+04 5.6118445715584e+01 5.9522600272707e+01 5.7275648817190e+01 0.0000000000000e+00 0.0000000000000e+00 0.0000000000000e+00 2.4356185475923e+02 3.8914375111058e+02 4.8449679847924e+02 -5.0411039767556e+01 2.0929482688774e+02 -9.0391678598223e+01
     10000  4.9443733850911e+02 -1.2735766794136e+04 2.5538852410813e+02 -1.2480378270027e+04 5.6118445715584e+01 5.9522600272707e+01 5.7275648817190e+01 0.0000000000000e+00 0.0000000000000e+00 0.0000000000000e+00 -4.1053346533632e+01 4.6691571508766e+02 6.2065657560779e+02 2.1623259820591e+02 2.6450616856452e+01 -2.0749635762731e+01
     10100  4.9761133500411e+02 -1.2735048710800e+04 2.5702796801184e+02 -1.2478020742788e+04 5.6118445715584e+01 5.9522600272707e+01 5.7275648817190e+01 0.0000000000000e+00 0.0000000000000e+00 0.0000000000000e+00 -3.6277153250406e+02 -6.2588322991711e+02 -7.8592547677606e+01 -1.0986680552885e+02 2.1225752671268e+01 -1.1837429738240e+02
     10200  5.0210928515101e+02 -1.2725571556337e+04 2.5935126514184e+02 -1.2466220291195e+04 5.6118445715584e+01 5.9522600272707e+01 5.7275648817190e+01 0.0000000000000e+00 0.0000000000000e+00 0.0000000000000e+00 -7.3714387187963e+02 -8.8330969575204e+02 -5.0473550478996e+02 -6.9232603292546e+01 9.7747782513912e+01 1.6911630294368e+02
     10300  5.0867019517101e+02 -1.2727752203367e+04 2.6274012960719e+02 -1.2465012073760e+04 5.6118445715584e+01 5.9522600272707e+01 5.7275648817190e+01 0.0000000000000e+00 0.0000000000000e+00 0.0000000000000e+00 -1.1287238690601e+03 -1.0345350736084e+03 -1.2607699861796e+03 8.4445318315661e+01 -1.6680858220933e+02 1.2747859384646e+02
     10400  4.9694254144590e+02 -1.2727745051142e+04 2.5668252039601e+02 -1.2471062530746e+04 5.6118445715584e+01 5.9522600272707e+01 5.7275648817190e+01 0.0000000000000e+00 0.0000000000000e+00 0.0000000000000e+00 -2.4155273064343e+02 -8.7402161313071e+02 -6.4903083414713e+02 7.6797025779919e+01 1.8872854541379e+02 6.0849859314429e+01
     10500  5.0402388444024e+02 -1.2737276910724e+04 2.6034020074329e+02 -1.2476936709981e+04 5.6118445715584e+01 5.9522600272707e+01 5.7275648817190e+01 0.0000000000000e+00 0.0000000000000e+00 0.0000000000000e+00 3.7951932819019e+02 -7.2528646517779e+01 1.4282104740715e+02 -7.6050057703911e+01 -5.0863360348641e+01 -2.2773462990641e+02
     10600  4.8411195652156e+02 -1.2731981338733e+04 2.5005522125806e+02 -1.2481926117475e+04 5.6118445715584e+01 5.9522600272707e+01 5.7275648817190e+01 0.0000000000000e+00 0.0000000000000e+00 0.0000000000000e+00 1.3516654167668e+03 1.1926388334649e+02 5.5747020300756e+02 -2.9916072674831e+02 -4.7110453205253e+01 -2.6531412049960e+02
     10700  4.8955872200688e+02 -1.2735170384750e+04 2.5286860384493e+02 -1.2482301780905e+04 5.6118445715584e+01 5.9522600272707e+01 5.7275648817190e+01 0.0000000000000e+00 0.0000000000000e+00 0.0000000000000e+00 9.2995941678821e+02 3.5289712956652e+02 4.1934211753827e+02 -1.1273462713199e+02 -6.6840045816414e+01 -1.0110738390500e+02
     10800  5.0325877375097e+02 -1.2739292808127e+04 2.5994500306202e+02 -1.2479347805065e+04 5.6118445715584e+01 5.9522600272707e+01 5.7275648817190e+01 0.0000000000000e+00 0.0000000000000e+00 0.0000000000000e+00 1.3371115919331e+03 3.1926729349281e+02 6.4883575412062e+02 -1.7220250832649e+01 3.2576886108404e+01 -2.2547387873858e+02
     10900  5.0801164880998e+02 -1.2733005074305e+04 2.6239997490992e+02 -1.2470605099395e+04 5.6118445715584e+01 5.9522600272707e+01 5.7275648817190e+01 0.0000000000000e+00 0.0000000000000e+00 0.0000000000000e+00 7.9984628990437e+02 3.2915132838623e+02 7.5478606932153e+02 -2.2839946414158e+01 -2.7661386098787e+02 -2.2919475059064e+02
     11000  5.1239112929568e+02 -1.2733318237647e+04 2.6466207967122e+02 -1.2468656157976e+04 5.6118445715584e+01 5.9522600272707e+01 5.7275648817190e+01 0.0000000000000e+00 0.0000000000000e+00 0.0000000000000e+00 -3.6695526262798e+02 -9.8461249691110e+01 1.2054531223431e+02 5.5421934449516e+01 -1.2174465622288e+02 -7.2235059919964e+01
     11100  5.0531328802939e+02 -1.2733287584027e+04 2.6100620804890e+02 -1.2472281375978e+04 5.6118445715584e+01 5.9522600272707e+01 5.7275648817190e+01 0.0000000000000e+00 0.0000000000000e+00 0.0000000000000e+00 -1.0555482140482e+03 -1.2243932636255e+03 -9.4820906715262e+02 1.1615757133454e+02 -1.7210427483048e+02 -1.7498789514388e+02
     11200  4.9694955591840e+02 -1.2731233921203e+04 2.5668614353617e+02 -1.2474547777667e+04 5.6118445715584e+01 5.9522600272707e+01 5.7275648817190e+01 0.0000000000000e+00 0.0000000000000e+00 0.0000000000000e+00 -1.2056492999959e+03 -7.9239419428184e+02 -8.0832566146405e+02 1.2110918075381e+02 1.0688620891586e+02 -2.6132448919491e+00
     11300  4.9389081684185e+02 -1.2731230063706e+04 2.5510623280219e+02 -1.2476123830904e+04 5.6118445715584e+01 5.9522600272707e+01 5.7275648817190e+01 0.0000000000000e+00 0.0000000000000e+00 0.0000000000000e+00 -7.2648036777128e+02 -3.6295797753395e+02 -5.3655462350802e+02 1.6737705809362e+02 -3.4294099900729e+01 4.8905877193662e+01
     11400  4.9904417207683e+02 -1.2734528254081e+04 2.5776806208805e+02 -1.2476760191992e+04 5.6118445715584e+01 5.9522600272707e+01 5.7275648817190e+01 0.0000000000000e+00 0.0000000000000e+00 0.0000000000000e+00 -1.0592937758399e+02 7.1370411153234e+02 2.8869352077370e+02 2.9051791943496e+02 2.1792127705505e+02 1.2583905678020e+02
     11500  4.9595703181295e+02 -1.2738688338490e+04 2.5617348147226e+02 -1.2482514857018e+04 5.6118445715584e+01 5.9522600272707e+01 5.7275648817190e+01 0.0000000000000e+00 0.0000000000000e+00 0.0000000000000e+00 -1.0302119320618e+02 5.7075037440544e+02 1.4363103643282e+01 -3.2896234291098e+01 1.7582758117653e+02 3.5453579992019e+02
     11600  4.9419271561124e+02 -1.2744549440777e+04 2.5526217062310e+02 -1.2489287270154e+04 5.6118445715584e+01 5.9522600272707e+01 5.7275648817190e+01 0.0000000000000e+00 0.0000000000000e+00 0.0000000000000e+00 6.5867395941432e+02 1.4024212550031e+03 5.1675109800083e+02 4.0606630184123e+01 9.7001697752850e+01 2.5666314618127e+02
     11700  4.9273944058970e+02 -1.2741989003762e+04 2.5451151986522e+02 -1.2487477483897e+04 5.6118445715584e+01 5.9522600272707e+01 5.7275648817190e+01 0.0000000000000e+00 0.0000000000000e+00 0.0000000000000e+00 8.4257331870100e+02 1.3562226069110e+03 6.1551251388211e+02 8.5593179960560e+01 1.1077843763238e+02 3.3965880485368e+02
     11800  4.9611937195045e+02 -1.2740487171141e+04 2.5625733397467e+02 -1.2484229837166e+04 5.6118445715584e+01 5.9522600272707e+01 5.7275648817190e+01 0.0000000000000e+00 0.0000000000000e+00 0.0000000000000e+00 3.3057815539232e+02 9.8143505422201e+02 3.5975655649758e+02 -1.7196723700997e+02 -1.0300830260042e+02 2.3676716702577e+02
     11900  4.9813268474061e+02 -1.2736982651465e+04 2.5729725742301e+02 -1.2479685394042e+04 5.6118445715584e+01 5.9522600272707e+01 5.7275648817190e+01 0.0000000000000e+00 0.0000000000000e+00 0.0000000000000e+00 -7.1822453616676e+02 -1.9650748719682e+02 -3.5336352896191e+02 -1.4395486888397e+02 6.3043027240877e+01 7.4115502731931e+01
     12000  5.0166259410717e+02 -1.2734849404349e+04 2.5912053870286e+02 -1.2475728865646e+04 5.6118445715584e+01 5.9522600272707e+01 5.7275648817190e+01 0.0000000000000e+00 0.0000000000000e+00 0.0000000000000e+00 -1.0262680034688e+03 -6.5889462979190e+02 -7.1330246408194e+02 -1.2931438262693e+02 -9.7505748872384e+01 5.2050074523220e+01
     12100  5.0201317793428e+02 -1.2733550968738e+04 2.5930162350210e+02 -1.2474249345236e+04 5.6118445715584e+01 5.9522600272707e+01 5.7275648817190e+01 0.0000000000000e+00 0.0000000000000e+00 0.0000000000000e+00 -9.5949731809789e+02 -8.2380233158013e+02 -6.0705860350835e+02 1.2891328208690e+02 7.7636112557514e+00 -1.8623674170532e+02
     12200  5.0667649405672e+02 -1.2735686399516e+04 2.6171033605109e+02 -1.2473976063465e+04 5.6118445715584e+01 5.9522600272707e+01 5.7275648817190e+01 0.0000000000000e+00 0.0000000000000e+00 0.0000000000000e+00 -4.6015831480651e+02 -6.8310072854375e+02 -2.4363815435762e+02 -1.8217769008288e+02 8.3822468811209e-01 -1.0414950222628e+02
     12300  4.9849755421351e+02 -1.2732349130324e+04 2.5748572109458e+02 -1.2474863409229e+04 5.6118445715584e+01 5.9522600272707e+01 5.7275648817190e+01 0.0000000000000e+00 0.0000000000000e+00 0.0000000000000e+00 -4.2600200371686e+01 -8.1779480009880e+02 -3.4038320948179e+02 -6.5997565072259e+01 -2.4718690339550e+01 -1.1519554113758e+02
     12400  4.9182276564571e+02 -1.2730638430262e+04 2.5403803567865e+02 -1.2476600394583e+04 5.6118445715584e+01 5.9522600272707e+01 5.7275648817190e+01 0.0000000000000e+00 0.0000000000000e+00 0.0000000000000e+00 5.9323704879618e+02 5.3390061624835e+01 4.6614109637708e+02 1.3571795006567e+01 -4.5752784724141e+01 -4.8938339432467e+01
     12500  4.9796670458437e+02 -1.2734232039944e+04 2.5721152476523e+02 -1.2477020515179e+04 5.6118445715584e+01 5.9522600272707e+01 5.7275648817190e+01 0.0000000000000e+00 0.0000000000000e+00 0.0000000000000e+00 1.4031584872883e+03 2.8668179388756e+02 7.3928849666538e+02 -2.1280176085915e+02 -4.3578564415525e+01 -1.7021106655072e+02
     12600  4.9790422600858e+02 -1.2737445486058e+04 2.5717925311013e+02 -1.2480266232948e+04 5.6118445715584e+01 5.9522600272707e+01 5.7275648817190e+01 0.0000000000000e+00 0.0000000000000e+00 0.0000000000000e+00 1.4788014923303e+03 2.5818380262009e+02 8.1104088391950e+02 -9.8420167431948e+01 -5.4717093834255e+01 -1.6159820320725e+02
     12700  4.9987132377934e+02 -1.2740211311797e+04 2.5819530541306e+02 -1.2482016006384e+04 5.6118445715584e+01 5.9522600272707e+01 5.7275648817190e+01 0.0000000000000e+00 0.0000000000000e+00 0.0000000000000e+00 5.9976444678592e+02 -2.3395579110693e+02 1.8317096677263e+02 -3.6731647431684e+01 7.5229993146066e+01 -1.0578850870563e+02
     12800  4.9915274709150e+02 -1.2738525012348e+04 2.5782414363892e+02 -1.2480700868709e+04 5.6118445715584e+01 5.9522600272707e+01 5.7275648817190e+01 0.0000000000000e+00 0.0000000000000e+00 0.0000000000000e+00 2.0872554668119e+02 -5.4329375497587e+02 -1.3679155478169e+02 9.5561023747844e+01 2.8646410317568e+01 5.8065981048556e+01
     12900  5.0252889195215e+02 -1.2732459594307e+04 2.5956800193194e+02 -1.2472891592375e+04 5.6118445715584e+01 5.9522600272707e+01 5.7275648817190e+01 0.0000000000000e+00 0.0000000000000e+00 0.0000000000000e+00 -2.1088382535305e+02 -7.1407646378147e+02 -2.9307102158306e+02 2.7283026764733e+01 3.5128267204524e+01 -4.1864604795241e+01
     13000  5.0335838059176e+02 -1.2730823481588e+04 2.5999645233998e+02 -1.2470827029248e+04 5.6118445715584e+01 5.9522600272707e+01 5.7275648817190e+01 0.0000000000000e+00 0.0000000000000e+00 0.0000000000000e+00 -6.5895272925150e+02 -4.2888794679183e+02 -3.4091244136898e+02 -2.7601238977242e+01 -5.8389216419237e+01 -3.2971183942905e+01
     13100  5.0441565274693e+02 -1.2733973407161e+04 2.6054255829569e+02 -1.2473430848866e+04 5.6118445715584e+01 5.9522600272707e+01 5.7275648817190e+01 0.0000000000000e+00 0.0000000000000e+00 0.0000000000000e+00 -8.9700307503692e+02 -4.3161351913106e+02 -2.6687164591719e+02 3.0409587897068e+01 -9.1292090510547e+01 -2.1391794176928e+01
     13200  4.8838724575890e+02 -1.2731258845644e+04 2.5226350878697e+02 -1.2478995336857e+04 5.6118445715584e+01 5.9522600272707e+01 5.7275648817190e+01 0.0000000000000e+00 0.0000000000000e+00 0.0000000000000e+00 -9.1480450561540e+02 -4.9643739475114e+02 -7.9734619299227e+02 1.3314983182473e+02 -7.1787705889053e+01 -8.4340764959215e-01
     13300  4.9229677998248e+02 -1.2737382700285e+04 2.5428287524162e+02 -1.2483099825044e+04 5.6118445715584e+01 5.9522600272707e+01 5.7275648817190e+01 0.0000000000000e+00 0.0000000000000e+00 0.0000000000000e+00 -4.6440986884553e+02 4.8129765580055e+02 -2.8908155191157e+01 2.5333543888716e+01 -7.0921921207099e+01 5.1464468763073e+00
     13400  4.8423887514248e+02 -1.2740407764923e+04 2.5012077771336e+02 -1.2490286987210e+04 5.6118445715584e+01 5.9522600272707e+01 5.7275648817190e+01 0.0000000000000e+00 0.0000000000000e+00 0.0000000000000e+00 4.9019236602338e+02 1.2897180545540e+03 4.6799596137946e+02 6.2064787319551e+01 9.0725318825177e+01 -1.0509352751657e+02
     13500  4.8764785857701e+02 -1.2742590725661e+04 2.5188159790278e+02 -1.2490709127758e+04 5.6118445715584e+01 5.9522600272707e+01 5.7275648817190e+01 0.0000000000000e+00 0.0000000000000e+00 0.0000000000000e+00 5.7279233724064e+02 1.5181708813307e+03 4.0764513917265e+02 6.8618126722264e+01 2.4320452917369e+02 -6.0141549220976e+01
     13600  4.9063529545930e+02 -1.2733530663701e+04 2.5342467937502e+02 -1.2480105984326e+04 5.6118445715584e+01 5.9522600272707e+01 5.7275648817190e+01 0.0000000000000e+00 0.0000000000000e+00 0.0000000000000e+00 3.1963442000604e+02 1.0337061277293e+03 1.7806500092619e+02 2.0996486477522e+02 3.8307509142332e+01 2.9335558731305e+02
     13700  5.0958580876092e+02 -1.2739861382399e+04 2.6321306557939e+02 -1.2476648316819e+04 5.6118445715584e+01 5.9522600272707e+01 5.7275648817190e+01 0.0000000000000e+00 0.0000000000000e+00 0.0000000000000e+00 4.9808978543841e+02 8.8084587323597e+02 3.2350019978789e+02 1.6626611357049e+02 2.1316165487746e+02 2.7856634234713e+02
     13800  5.0533048890013e+02 -1.2738980495166e+04 2.6101509270354e+02 -1.2477965402462e+04 5.6118445715584e+01 5.9522600272707e+01 5.7275648817190e+01 0.0000000000000e+00 0.0000000000000e+00 0.0000000000000e+00 -1.9833250844949e+02 -1.3715420313851e+02 -3.5827557864633e+02 3.2724188821221e+02 1.3339868852020e+01 1.8864067181570e+02
     13900  4.9837826345089e+02 -1.2737174933343e+04 2.5742410460765e+02 -1.2479750828735e+04 5.6118445715584e+01 5.9522600272707e+01 5.7275648817190e+01 0.0000000000000e+00 0.0000000000000e+00 0.0000000000000e+00 -7.6456792190180e+02 -7.0046067636808e+02 -6.6191802174645e+02 6.4855210503091e+01 2.0600058219939e+02 1.2123611906436e+02
     14000  4.9607470868545e+02 -1.2732394244607e+04 2.5623426434695e+02 -1.2476159980260e+04 5.6118445715584e+01 5.9522600272707e+01 5.7275648817190e+01 0.0000000000000e+00 0.0000000000000e+00 0.0000000000000e+00 -5.9362928267267e+02 -1.2186072144265e+03 -7.9662705571808e+02 -2.0657579705300e+02 1.1472688862117e+02 1.9887006568249e+02
     14100  4.9712400179570e+02 -1.2726240894256e+04 2.5677624893815e+02 -1.2469464645317e+04 5.6118445715584e+01 5.9522600272707e+01 5.7275648817190e+01 0.0000000000000e+00 0.0000000000000e+00 0.0000000000000e+00 -4.1653177995798e+02 -7.6559547285211e+02 -5.5052908448881e+02 -5.0271812742787e+01 2.6402002461981e+01 1.2593014474461e+02
     14200  5.0985167103812e+02 -1.2730402311165e+04 2.6335038970381e+02 -1.2467051921461e+04 5.6118445715584e+01 5.9522600272707e+01 5.7275648817190e+01 0.0000000000000e+00 0.0000000000000e+00 0.0000000000000e+00 -5.0656614314238e+01 -3.3857340012146e+02 3.0209821935743e+02 -2.2154319346781e+02 9.1863786604459e+01 -1.9192096480940e+02
     14300  5.0675254518194e+02 -1.2733936226219e+04 2.6174961824747e+02 -1.2472186607971e+04 5.6118445715584e+01 5.9522600272707e+01 5.7275648817190e+01 0.0000000000000e+00 0.0000000000000e+00 0.0000000000000e+00 6.7201659639230e+02 1.3436294257425e+02 9.5381419578915e+02 -1.9327488905339e+01 -4.3264868863584e+01 -2.7421106476934e+02
     14400  5.0790877289089e+02 -1.2738026724633e+04 2.6234683707607e+02 -1.2475679887557e+04 5.6118445715584e+01 5.9522600272707e+01 5.7275648817190e+01 0.0000000000000e+00 0.0000000000000e+00 0.0000000000000e+00 1.0391454934988e+03 3.9999628182855e+02 8.3334257594039e+02 -2.4473401620248e+02 -1.2088232122193e+02 -3.0710709805960e+02
     14500  5.0136533533682e+02 -1.2738199959614e+04 2.5896699755067e+02 -1.2479232962063e+04 5.6118445715584e+01 5.9522600272707e+01 5.7275648817190e+01 0.0000000000000e+00 0.0000000000000e+00 0.0000000000000e+00 7.8955009869968e+02 2.3586001348941e+02 3.1324720496767e+02 -1.7324328628730e+02 -1.5848935732535e+02 -2.9852739024891e+02
     14600  4.9413838721025e+02 -1.2738787128357e+04 2.5523410872513e+02 -1.2483553019632e+04 5.6118445715584e+01 5.9522600272707e+01 5.7275648817190e+01 0.0000000000000e+00 0.0000000000000e+00 0.0000000000000e+00 6.6269151140131e+02 1.6805793801632e+02 1.6859924431972e+02 -2.3654617381402e+02 -6.9734583393771e+01 -2.0440097149027e+02
     14700  4.9338231747268e+02 -1.2738708537729e+04 2.5484358090823e+02 -1.2483864956821e+04 5.6118445715584e+01 5.9522600272707e+01 5.7275648817190e+01 0.0000000000000e+00 0.0000000000000e+00 0.0000000000000e+00 3.4223724195086e+02 -5.2482112441053e+02 -2.8495520479820e+02 -1.2831214892563e+02 -1.5193762803296e+02 -3.5482703160264e+01
     14800  5.0472522719121e+02 -1.2736320434981e+04 2.6070246078337e+02 -1.2475617974197e+04 5.6118445715584e+01 5.9522600272707e+01 5.7275648817190e+01 0.0000000000000e+00 0.0000000000000e+00 0.0000000000000e+00 -2.4214857125749e+02 -5.5514161637489e+02 -4.7593970869357e+02 1.5006190281132e+02 -2.4682330771710e+02 -4.4171315337230e+01
     14900  5.0784648363084e+02 -1.2732327406500e+04 2.6231466320700e+02 -1.2470012743293e+04 5.6118445715584e+01 5.9522600272707e+01 5.7275648817190e+01 0.0000000000000e+00 0.0000000000000e+00 0.0000000000000e+00 -8.6111430747230e+02 -7.7939805664003e+02 -7.6277324996064e+02 2.3129377030106e+02 -3.3442561992296e+02 -8.1995726409967e+01
     15000  5.0458823831863e+02 -1.2731336625818e+04 2.6063170280604e+02 -1.2470704923012e+04 5.6118445715584e+01 5.9522600272707e+01 5.7275648817190e+01 0.0000000000000e+00 0.0000000000000e+00 0.0000000000000e+00 -7.8166813453882e+02 -4.5615803152012e+02 -3.4930260667166e+02 1.5047812885257e+02 9.8039876053116e+01 1.4780300826539e+01
     15100  4.9609942000873e+02 -1.2733608237189e+04 2.5624702832712e+02 -1.2477361208861e+04 5.6118445715584e+01 5.9522600272707e+01 5.7275648817190e+01 0.0000000000000e+00 0.0000000000000e+00 0.0000000000000e+00 -7.0342651899978e+02 2.2215958121725e+02 1.5726784897897e+02 1.2754677134587e+02 6.0495866144496e+01 7.5185447586123e+01
     15200  5.0023557310223e+02 -1.2739130971191e+04 2.5838344876256e+02 -1.2480747522429e+04 5.6118445715584e+01 5.9522600272707e+01 5.7275648817190e+01 0.0000000000000e+00 0.0000000000000e+00 0.0000000000000e+00 -6.7661406893859e-02 7.1379060103852e+02 4.9145113516975e+02 1.6289666660862e+02 2.3635773218405e+02 1.2042581417536e+02
     15300  5.0939433508411e+02 -1.2743828812612e+04 2.6311416491814e+02 -1.2480714647694e+04 5.6118445715584e+01 5.9522600272707e+01 5.7275648817190e+01 0.0000000000000e+00 0.0000000000000e+00 0.0000000000000e+00 1.4163151454323e+02 6.0176878185304e+02 4.8176585293305e+02 1.3550504099963e+02 2.4903830799393e+01 9.6755758177989e+01
     15400  5.0282788208880e+02 -1.2739560494839e+04 2.5972243737557e+02 -1.2479838057463e+04 5.6118445715584e+01 5.9522600272707e+01 5.7275648817190e+01 0.0000000000000e+00 0.0000000000000e+00 0.0000000000000e+00 2.4431414825267e+00 1.1926436076252e+03 5.8574755672322e+02 3.8728788450033e+01 6.0438147998612e+01 -6.3040123468260e+01
     15500  4.9368078903604e+02 -1.2733184031096e+04 2.5499774849655e+02 -1.2478186282599e+04 5.6118445715584e+01 5.9522600272707e+01 5.7275648817190e+01 0.0000000000000e+00 0.0000000000000e+00 0.0000000000000e+00 4.3934132486442e+02 8.4418738871521e+02 3.3600556586939e+02 2.0871575853890e+02 1.3026626270298e+02 1.7744556701367e+02
     15600  5.1012849788791e+02 -1.2735457771286e+04 2.6349337728807e+02 -1.2471964393998e+04 5.6118445715584e+01 5.9522600272707e+01 5.7275648817190e+01 0.0000000000000e+00 0.0000000000000e+00 0.0000000000000e+00 -6.2033997301491e+01 2.2043440384694e+00 -5.6484335241956e+02 2.0868583999499e+01 -5.3345107132362e+01 1.4208842872420e+02
     15700  5.0637347132987e+02 -1.2725418226976e+04 2.6155381767970e+02 -1.2463864409296e+04 5.6118445715584e+01 5.9522600272707e+01 5.7275648817190e+01 0.0000000000000e+00 0.0000000000000e+00 0.0000000000000e+00 -2.4326812998174e+02 3.3229350498267e+01 -5.6391262995326e+02 -6.2432319434962e+01 -9.5231889555055e+01 9.3122825490237e+01
     15800  4.9874044353964e+02 -1.2722802690998e+04 2.5761117914899e+02 -1.2465191511849e+04 5.6118445715584e+01 5.9522600272707e+01 5.7275648817190e+01 0.0000000000000e+00 0.0000000000000e+00 0.0000000000000e+00 -6.3840544292780e+02 -7.0813044870395e+02 -1.1760928899612e+03 -1.4342212761441e+02 1.4870087498124e+02 2.1346951138599e+02
     15900  5.0856244031829e+02 -1.2735209056556e+04 2.6268447168927e+02 -1.2472524584866e+04 5.6118445715584e+01 5.9522600272707e+01 5.7275648817190e+01 0.0000000000000e+00 0.0000000000000e+00 0.0000000000000e+00 -6.1157494859426e+02 -8.4777368397872e+02 -9.4456399797494e+02 7.1126406837687e+01 -5.8215114731997e+01 -3.4962389374916e+01
     16000  4.9336344299875e+02 -1.2731055138405e+04 2.5483383179815e+02 -1.2476221306607e+04 5.6118445715584e+01 5.9522600272707e+01 5.7275648817190e+01 0.0000000000000e+00 0.0000000000000e+00 0.0000000000000e+00 4.1957836378081e+01 -2.2524643580567e+02 -3.7115026255011e+01 -1.1715410345366e+02 -1.2924505401687e+01 -1.7185491497462e+02
     16100  5.0041825706681e+02 -1.2736781132082e+04 2.5847780933054e+02 -1.2478303322752e+04 5.6118445715584e+01 5.9522600272707e+01 5.7275648817190e+01 0.0000000000000e+00 0.0000000000000e+00 0.0000000000000e+00 7.0678251281469e+02 -4.3871287065648e+01 7.8411437581605e+02 -3.6609317479272e+01 -1.0501400137185e+02 -1.5110452062017e+02
     16200  4.9094906164046e+02 -1.2736310857161e+04 2.5358674699346e+02 -1.2482724110168e+04 5.6118445715584e+01 5.9522600272707e+01 5.7275648817190e+01 0.0000000000000e+00 0.0000000000000e+00 0.0000000000000e+00 4.3345235187271e+02 -9.2652732872920e+01 5.5454131289162e+02 -4.1935254273891e+00 5.2148823362402e+00 -1.7785684954213e+02
     16300  5.0129328222947e+02 -1.2742589786131e+04 2.5892978042463e+02 -1.2483660005707e+04 5.6118445715584e+01 5.9522600272707e+01 5.7275648817190e+01 0.0000000000000e+00 0.0000000000000e+00 0.0000000000000e+00 8.5879933117006e+02 5.2311741949717e+02 1.1791399415737e+03 4.4120865194461e+01 1.3676169179923e+02 -2.0024745095668e+02
     16400  4.9159485554853e+02 -1.2734602297838e+04 2.5392031474859e+02 -1.2480681983089e+04 5.6118445715584e+01 5.9522600272707e+01 5.7275648817190e+01 0.0000000000000e+00 0.0000000000000e+00 0.0000000000000e+00 8.0297249636198e+02 2.3189387725104e+02 7.1395498431160e+02 2.9339863013122e+01 5.1179158026598e+01 -1.4990152604844e+02
     16500  5.0351795025546e+02 -1.2734391262973e+04 2.6007887382746e+02 -1.2474312389145e+04 5.6118445715584e+01 5.9522600272707e+01 5.7275648817190e+01 0.0000000000000e+00 0.0000000000000e+00 0.0000000000000e+00 5.9529351610968e+02 -1.3218037124470e+02 4.8770764777942e+02 9.3715256142825e+01 1.7308758887443e+02 -8.8014315992688e+01
     16600  5.1044808831487e+02 -1.2735212711713e+04 2.6365845326657e+02 -1.2471554258446e+04 5.6118445715584e+01 5.9522600272707e+01 5.7275648817190e+01 0.0000000000000e+00 0.0000000000000e+00 0.0000000000000e+00 -4.4013680512649e+02 -6.2377899791367e+02 -3.4739159497761e+02 1.3293989844094e+02 -7.1226141434035e+01 7.7002226067882e+01
     16700  4.9925641415419e+02 -1.2732753114937e+04 2.5787769011706e+02 -1.2474875424820e+04 5.6118445715584e+01 5.9522600272707e+01 5.7275648817190e+01 0.0000000000000e+00 0.0000000000000e+00 0.0000000000000e+00 -5.3771566220387e+02 -9.5155500812268e+02 -8.0197283260992e+02 -6.3344201425634e+01 -1.3365486514476e+02 -8.1637976902626e+01
     16800  4.9247142615972e+02 -1.2737045101464e+04 2.5437308410323e+02 -1.2482672017361e+04 5.6118445715584e+01 5.9522600272707e+01 5.7275648817190e+01 0.0000000000000e+00 0.0000000000000e+00 0.0000000000000e+00 -4.0452505988644e+02 -6.3153162354856e+02 -8.2792695025706e+02 2.5919464193289e+01 -2.9372512365172e+02 4.5327038556314e+01
     16900  4.9172246424981e+02 -1.2738352712648e+04 2.5398622764664e+02 -1.2484366485001e+04 5.6118445715584e+01 5.9522600272707e+01 5.7275648817190e+01 0.0000000000000e+00 0.0000000000000e+00 0.0000000000000e+00 -3.0531373979779e+02 -1.6820766874134e+02 -6.6902639107904e+02 -2.1419667199422e+02 -6.2061758472224e+01 3.7578736034172e+01
     17000  4.9824806488815e+02 -1.2738728254773e+04 2.5735685398519e+02 -1.2481371400788e+04 5.6118445715584e+01 5.9522600272707e+01 5.7275648817190e+01 0.0000000000000e+00 0.0000000000000e+00 0.0000000000000e+00 -2.0133069599174e+02 3.6668134670638e+02 -2.5165512014447e+02 -2.7445708431015e+02 -1.2057954207686e+02 -1.3402009556676e+01
     17100  4.9738650233074e+02 -1.2736420604318e+04 2.5691183664361e+02 -1.2479508767674e+04 5.6118445715584e+01 5.9522600272707e+01 5.7275648817190e+01 0.0000000000000e+00 0.0000000000000e+00 0.0000000000000e+00 2.7235088513422e+02 1.0298767777057e+03 5.5238322437526e+02 -1.0274511680271e+02 -7.4361680818202e+01 -1.2957358297198e+02
     17200  5.0404965758058e+02 -1.2738504034596e+04 2.6035351317696e+02 -1.2478150521419e+04 5.6118445715584e+01 5.9522600272707e+01 5.7275648817190e+01 0.0000000000000e+00 0.0000000000000e+00 0.0000000000000e+00 2.6027370760052e+02 1.2630939225836e+03 7.4588349717734e+02 -9.2632471923794e+01 1.2425555427210e+02 5.4557780879555e+01
     17300  4.9658003507298e+02 -1.2736532495505e+04 2.5649527732120e+02 -1.2480037218184e+04 5.6118445715584e+01 5.9522600272707e+01 5.7275648817190e+01 0.0000000000000e+00 0.0000000000000e+00 0.0000000000000e+00 8.8172171669499e+01 1.1215328866866e+03 4.3807611208443e+02 1.2380158974470e+02 -9.5990830251668e+00 -6.8995609598717e+01
     17400  5.0049274413287e+02 -1.2740039769011e+04 2.5851628365354e+02 -1.2481523485358e+04 5.6118445715584e+01 5.9522600272707e+01 5.7275648817190e+01 0.0000000000000e+00 0.0000000000000e+00 0.0000000000000e+00 1.3250695803275e+02 6.1518978225775e+02 1.2210525725849e+02 1.1628448928744e+02 1.8096219423134e+02 1.7923681054975e+02
     17500  4.9282009270366e+02 -1.2737802347261e+04 2.5455317858058e+02 -1.2483249168680e+04 5.6118445715584e+01 5.9522600272707e+01 5.7275648817190e+01 0.0000000000000e+00 0.0000000000000e+00 0.0000000000000e+00 -4.1051765155386e+02 -1.6051106883262e+02 -4.1308068073199e+02 1.6272161726086e+02 2.0315150487529e+02 2.5357108726399e+02
     17600  4.9089365292707e+02 -1.2733570049759e+04 2.5355812708870e+02 -1.2480011922670e+04 5.6118445715584e+01 5.9522600272707e+01 5.7275648817190e+01 0.0000000000000e+00 0.0000000000000e+00 0.0000000000000e+00 -5.6473076171488e+02 -4.6574323178665e+02 -5.1757706244881e+02 2.6091983609739e+02 2.1306775009295e+02 1.1907497097348e+02
     17700  5.0464257975910e+02 -1.2733069692305e+04 2.6065977143921e+02 -1.2472409920866e+04 5.6118445715584e+01 5.9522600272707e+01 5.7275648817190e+01 0.0000000000000e+00 0.0000000000000e+00 0.0000000000000e+00 -4.9717678535583e+02 -4.6115438718545e+02 -5.7134504676101e+02 2.3844428009924e+02 1.9346913347326e+02 6.1990605004756e+01
     17800  4.9767240974177e+02 -1.2728482653087e+04 2.5705951455150e+02 -1.2471423138535e+04 5.6118445715584e+01 5.9522600272707e+01 5.7275648817190e+01 0.0000000000000e+00 0.0000000000000e+00 0.0000000000000e+00 -4.3369999613937e+01 -8.0373125391565e+02 -1.3676718418597e+02 4.3973446152661e+01 -2.2549681047004e+01 5.6153878180103e+01
     17900  5.0475694313988e+02 -1.2734862875761e+04 2.6071884281743e+02 -1.2474144032943e+04 5.6118445715584e+01 5.9522600272707e+01 5.7275648817190e+01 0.0000000000000e+00 0.0000000000000e+00 0.0000000000000e+00 2.9846485579846e+01 -6.7005800281558e+02 -1.8547856178441e+02 -1.2505112674321e+02 -1.1001340101289e+02 1.2509769592379e+02
     18000  5.0067608953328e+02 -1.2739638423224e+04 2.5861098586869e+02 -1.2481027437356e+04 5.6118445715584e+01 5.9522600272707e+01 5.7275648817190e+01 0.0000000000000e+00 0.0000000000000e+00 0.0000000000000e+00 4.5632030161116e+02 -6.4219201382380e+01 2.9662229163475e+02 6.9185346189708e+01 -1.0714090563266e+02 1.6774445991355e+01
     18100  4.9543410380339e+02 -1.2740882368980e+04 2.5590337684590e+02 -1.2484978992134e+04 5.6118445715584e+01 5.9522600272707e+01 5.7275648817190e+01 0.0000000000000e+00 0.0000000000000e+00 0.0000000000000e+00 9.6727966934504e+02 2.5901877668533e+02 4.4118607806471e+02 -1.6736507313866e+02 -1.6089991406551e+02 -3.0977928069995e+02
     18200  5.0121493852113e+02 -1.2742436289879e+04 2.5888931405511e+02 -1.2483546975824e+04 5.6118445715584e+01 5.9522600272707e+01 5.7275648817190e+01 0.0000000000000e+00 0.0000000000000e+00 0.0000000000000e+00 7.4571203718797e+02 4.6900661046296e+02 9.3423956413666e+02 -3.2405452466776e+02 -1.7997992215548e+02 -1.7598663232256e+02
     18300  5.0400934606218e+02 -1.2740381783474e+04 2.6033269132880e+02 -1.2480049092146e+04 5.6118445715584e+01 5.9522600272707e+01 5.7275648817190e+01 0.0000000000000e+00 0.0000000000000e+00 0.0000000000000e+00 5.0098903319878e+02 2.3400681624036e+02 7.1077619143453e+02 -1.8817487575186e+01 -1.1068262559879e+02 -1.6325089580442e+02
     18400  4.9611049199658e+02 -1.2731161512263e+04 2.5625274726947e+02 -1.2474908764993e+04 5.6118445715584e+01 5.9522600272707e+01 5.7275648817190e+01 0.0000000000000e+00 0.0000000000000e+00 0.0000000000000e+00 2.6588865689752e+02 6.1487221517836e+01 1.5393539418191e+02 1.0610468030843e+02 -1.4583649038409e+02 -3.6140747950054e+02
     18500  5.0581895279023e+02 -1.2733314873495e+04 2.6126739580093e+02 -1.2472047477694e+04 5.6118445715584e+01 5.9522600272707e+01 5.7275648817190e+01 0.0000000000000e+00 0.0000000000000e+00 0.0000000000000e+00 -5.7400192286919e+02 -4.6713592837272e+02 -3.4502564766023e+02 -1.2422423699273e+02 -8.2731909671962e+01 6.0007738772403e+01
     18600  5.0066206061594e+02 -1.2731627990459e+04 2.5860373960265e+02 -1.2473024250856e+04 5.6118445715584e+01 5.9522600272707e+01 5.7275648817190e+01 0.0000000000000e+00 0.0000000000000e+00 0.0000000000000e+00 -4.4815881732945e+02 -6.4500804836545e+02 -7.4306907437398e+02 9.4137979181743e+01 1.0940757284394e+02 -1.6661075091914e+02
     18700  4.9738997301892e+02 -1.2730640790144e+04 2.5691362933575e+02 -1.2473727160808e+04 5.6118445715584e+01 5.9522600272707e+01 5.7275648817190e+01 0.0000000000000e+00 0.0000000000000e+00 0.0000000000000e+00 -8.5433486451364e+02 -6.2236422110578e+02 -8.9130735841480e+02 -4.1173482780210e+01 4.5279618066813e+01 2.5708055214643e+01
     18800  5.0143194183059e+02 -1.2737597718156e+04 2.5900140137258e+02 -1.2478596316783e+04 5.6118445715584e+01 5.9522600272707e+01 5.7275648817190e+01 0.0000000000000e+00 0.0000000000000e+00 0.0000000000000e+00 -4.0725463581778e+02 -3.0981365847591e+02 -4.7816066087402e+02 7.3361029524570e+01 2.4731753003588e+02 4.9505758869093e+01
     18900  4.9961219226085e+02 -1.2742043443816e+04 2.5806145788396e+02 -1.2483981985932e+04 5.6118445715584e+01 5.9522600272707e+01 5.7275648817190e+01 0.0000000000000e+00 0.0000000000000e+00 0.0000000000000e+00 -3.6456619726647e+02 1.8411791085800e+01 -2.9187698944820e+02 6.2063785922165e+01 -7.7924354208044e+00 3.4029971919526e+02
     19000  4.9737428004505e+02 -1.2740522254817e+04 2.5690552354534e+02 -1.2483616731271e+04 5.6118445715584e+01 5.9522600272707e+01 5.7275648817190e+01 0.0000000000000e+00 0.0000000000000e+00 0.0000000000000e+00 6.2633549758357e+02 1.0181936132528e+03 3.8213155611686e+02 -3.0561952096716e+01 2.4573841572103e+02 2.7729334839795e+02
     19100  5.0171842228399e+02 -1.2738261703748e+04 2.5914937527035e+02 -1.2479112328478e+04 5.6118445715584e+01 5.9522600272707e+01 5.7275648817190e+01 0.0000000000000e+00 0.0000000000000e+00 0.0000000000000e+00 4.3250255174802e+02 9.2345878568652e+02 6.9619304532987e+02 3.1453333939888e+01 -1.8791365990942e+00 1.1106476537470e+02
     19200  4.9697192128220e+02 -1.2731663091741e+04 2.5669769577304e+02 -1.2474965395968e+04 5.6118445715584e+01 5.9522600272707e+01 5.7275648817190e+01 0.0000000000000e+00 0.0000000000000e+00 0.0000000000000e+00 3.3123022617897e+02 8.5280701279492e+02 5.5191035520904e+02 2.4800669187738e+01 -2.0921077907949e+02 1.1865733846793e+02
     19300  5.0800940195043e+02 -1.2736388637154e+04 2.6239881435407e+02 -1.2473989822800e+04 5.6118445715584e+01 5.9522600272707e+01 5.7275648817190e+01 0.0000000000000e+00 0.0000000000000e+00 0.0000000000000e+00 1.3624021189242e+02 5.4523666557244e+02 8.2631405169661e+01 -8.4296959217022e+00 -1.2981801718385e+01 -1.2580197787623e+01
     19400  4.9721344968788e+02 -1.2737262044210e+04 2.5682245088001e+02 -1.2480439593330e+04 5.6118445715584e+01 5.9522600272707e+01 5.7275648817190e+01 0.0000000000000e+00 0.0000000000000e+00 0.0000000000000e+00 -2.4257395709234e+02 -4.0085156672321e+01 -9.3625226711993e+00 -8.1181214145548e+01 -1.8081272994918e+02 -1.0089571862480e+02
     19500  4.8704950097181e+02 -1.2737775750648e+04 2.5157253211470e+02 -1.2486203218533e+04 5.6118445715584e+01 5.9522600272707e+01 5.7275648817190e+01 0.0000000000000e+00 0.0000000000000e+00 0.0000000000000e+00 -7.4598484246205e+02 -6.2109694705190e+02 -3.6280682743061e+02 -8.9255169966287e+01 1.9990095446930e+01 -2.1519552138760e+02
     19600  4.9698814534597e+02 -1.2739042664046e+04 2.5670607588388e+02 -1.2482336588162e+04 5.6118445715584e+01 5.9522600272707e+01 5.7275648817190e+01 0.0000000000000e+00 0.0000000000000e+00 0.0000000000000e+00 -9.8963778067046e+02 -9.2768511592724e+02 -7.0995303895809e+02 1.2228666305464e+02 -7.9340482947722e+00 -1.0948758726834e+02
     19700  4.9763457737286e+02 -1.2733129399589e+04 2.5703997324240e+02 -1.2476089426346e+04 5.6118445715584e+01 5.9522600272707e+01 5.7275648817190e+01 0.0000000000000e+00 0.0000000000000e+00 0.0000000000000e+00 -1.3301934959759e+02 -6.3047233258340e+02 -3.4872053143016e+02 1.5909758352368e+02 -1.2833300574494e+02 -1.6831693644145e+02
     19800  5.0494680811394e+02 -1.2736144908867e+04 2.6081691254585e+02 -1.2475327996321e+04 5.6118445715584e+01 5.9522600272707e+01 5.7275648817190e+01 0.0000000000000e+00 0.0000000000000e+00 0.0000000000000e+00 3.9765847523413e+02 -2.1491453771193e+02 -9.9578572871067e+01 1.5040982283425e+02 2.2485250931860e+01 -7.9183646289395e+01
     19900  4.9752608882322e+02 -1.2734857609185e+04 2.5698393635276e+02 -1.2477873672832e+04 5.6118445715584e+01 5.9522600272707e+01 5.7275648817190e+01 0.0000000000000e+00 0.0000000000000e+00 0.0000000000000e+00 6.9068692449508e+02 3.4173643509435e+02 3.2784015287789e+02 -1.2425196382711e+01 -2.5502288572531e+01 -3.1733271148662e+01
     20000  5.0037234558739e+02 -1.2741354883154e+04 2.5845409497068e+02 -1.2482900788184e+04 5.6118445715584e+01 5.9522600272707e+01 5.7275648817190e+01 0.0000000000000e+00 0.0000000000000e+00 0.0000000000000e+00 5.7957881910746e+02 2.7183028306026e+01 3.9246264392241e+02 4.7534884791065e+01 -9.0460635461957e+00 1.5425590622368e+02
     20100  4.8644137741692e+02 -1.2738549540358e+04 2.5125842198373e+02 -1.2487291118374e+04 5.6118445715584e+01 5.9522600272707e+01 5.7275648817190e+01 0.0000000000000e+00 0.0000000000000e+00 0.0000000000000e+00 5.1874360803473e+02 9.3959039208516e+01 6.8912844520730e+02 4.5596807701009e+01 1.0129765272979e+02 2.6127837882878e+02
     20200  4.9834906821402e+02 -1.2742487197605e+04 2.5740902458057e+02 -1.2485078173025e+04 5.6118445715584e+01 5.9522600272707e+01 5.7275648817190e+01 0.0000000000000e+00 0.0000000000000e+00 0.0000000000000e+00 4.2952663945140e+02 2.6119949092787e+02 5.8893141990900e+02 -9.4100056595438e+00 -1.1725226836477e+02 1.6237257911524e+02
     20300  5.0284530007736e+02 -1.2736407619321e+04 2.5973143417667e+02 -1.2476676185145e+04 5.6118445715584e+01 5.9522600272707e+01 5.7275648817190e+01 0.0000000000000e+00 0.0000000000000e+00 0.0000000000000e+00 -1.9324608640105e+01 6.0412402920634e+01 3.1765958388337e+02 -9.4327888788582e+01 -7.5912321124576e+01 1.3709621093010e+01
     20400  5.0412760472990e+02 -1.2733828405861e+04 2.6039377471441e+02 -1.2473434631147e+04 5.6118445715584e+01 5.9522600272707e+01 5.7275648817190e+01 0.0000000000000e+00 0.0000000000000e+00 0.0000000000000e+00 -3.2459171691054e+02 -3.9612212418792e+02 -3.4213505906776e+02 -2.3982558005102e+02 -7.5516321463238e+01 -1.1649792963788e+02
     20500  4.9704736994864e+02 -1.2729431841580e+04 2.5673666678528e+02 -1.2472695174795e+04 5.6118445715584e+01 5.9522600272707e+01 5.7275648817190e+01 0.0000000000000e+00 0.0000000000000e+00 0.0000000000000e+00 -3.8613901048470e+02 -6.4967218026805e+02 -8.0617538605817e+02 -1.6698047068227e+02 1.3281316720740e+00 1.8256029956673e+00
     20600  5.0284254629227e+02 -1.2733717150129e+04 2.5973001178185e+02 -1.2473987138347e+04 5.6118445715584e+01 5.9522600272707e+01 5.7275648817190e+01 0.0000000000000e+00 0.0000000000000e+00 0.0000000000000e+00 -5.5347835042082e+02 -6.5591569222362e+02 -6.1951882273283e+02 -1.3867919273802e+02 2.1045512357164e+01 -5.8421679011767e+01
     20700  4.9584715528717e+02 -1.2737902969945e+04 2.5611672766027e+02 -1.2481786242285e+04 5.6118445715584e+01 5.9522600272707e+01 5.7275648817190e+01 0.0000000000000e+00 0.0000000000000e+00 0.0000000000000e+00 -5.7661023514246e+02 -1.6022819413904e+02 -4.3250507009388e+02 -1.6747931925387e+02 -8.8340376175017e+01 -2.6844389043464e+02
     20800  4.9086477888612e+02 -1.2737138688430e+04 2.5354321296688e+02 -1.2483595475464e+04 5.6118445715584e+01 5.9522600272707e+01 5.7275648817190e+01 0.0000000000000e+00 0.0000000000000e+00 0.0000000000000e+00 1.9629488489946e+02 7.8881145420083e+01 -2.9473963124490e+02 -1.7800775957534e+01 2.8471428813183e+00 -1.8912052859905e+02
     20900  5.0522371311580e+02 -1.2739655724481e+04 2.6095994049749e+02 -1.2478695783983e+04 5.6118445715584e+01 5.9522600272707e+01 5.7275648817190e+01 0.0000000000000e+00 0.0000000000000e+00 0.0000000000000e+00 3.1238599645017e+02 5.6199730273310e+02 7.0772492177360e+01 1.3964604536263e+02 1.2166021236474e+02 9.5422691898248e+01
     21000  4.8149250185370e+02 -1.2726253426895e+04 2.4870221126167e+02 -1.2477551215633e+04 5.6118445715584e+01 5.9522600272707e+01 5.7275648817190e+01 0.0000000000000e+00 0.0000000000000e+00 0.0000000000000e+00 1.1185631108659e+03 1.2607033717199e+03 7.4310126623866e+02 1.6889241140638e+02 3.4732037647788e+01 -8.4884986022136e+01
     21100  5.1330143559077e+02 -1.2742741015512e+04 2.6513227430071e+02 -1.2477608741211e+04 5.6118445715584e+01 5.9522600272707e+01 5.7275648817190e+01 0.0000000000000e+00 0.0000000000000e+00 0.0000000000000e+00 4.7119528231848e+02 9.4592161541874e+02 5.3563781289267e+02 1.9568964191260e+02 2.3984163172681e+02 2.2395885922328e+02
     21200  4.9780110189505e+02 -1.2736122101725e+04 2.5712598707801e+02 -1.2478996114647e+04 5.6118445715584e+01 5.9522600272707e+01 5.7275648817190e+01 0.0000000000000e+00 0.0000000000000e+00 0.0000000000000e+00 -1.2768150990615e+02 2.8534872902317e+02 1.4779171369622e+02 1.6087393173195e+02 1.8859043343930e+02 1.9108768828052e+02
     21300  4.9253397381554e+02 -1.2734034477294e+04 2.5440539143980e+02 -1.2479629085854e+04 5.6118445715584e+01 5.9522600272707e+01 5.7275648817190e+01 0.0000000000000e+00 0.0000000000000e+00 0.0000000000000e+00 -7.5131253135385e+02 1.9508019533856e+01 -2.6517576822978e+02 7.3923899636797e+01 1.5933569856593e+02 1.8917939959126e+02
     21400  5.0695377693288e+02 -1.2738084353720e+04 2.6185355918371e+02 -1.2476230794536e+04 5.6118445715584e+01 5.9522600272707e+01 5.7275648817190e+01 0.0000000000000e+00 0.0000000000000e+00 0.0000000000000e+00 -8.5198195980011e+02 -3.9642660738342e+02 -2.5699932798950e+02 1.8712845431456e+02 6.2564491866004e+01 2.1493527508098e+02
     21500  4.9932770994361e+02 -1.2726423214667e+04 2.5791451607055e+02 -1.2468508698597e+04 5.6118445715584e+01 5.9522600272707e+01 5.7275648817190e+01 0.0000000000000e+00 0.0000000000000e+00 0.0000000000000e+00 -1.0184133893047e+03 -8.7863430587523e+02 -2.8176695656241e+02 1.0632800452123e+01 7.8680450107300e+01 8.4048035957679e+00
     21600  5.1048984190695e+02 -1.2730331183729e+04 2.6368001997973e+02 -1.2466651163749e+04 5.6118445715584e+01 5.9522600272707e+01 5.7275648817190e+01 0.0000000000000e+00 0.0000000000000e+00 0.0000000000000e+00 -3.5080591685872e+02 -4.4027610056371e+02 -5.4936646426705e+01 -1.4893568752509e+02 -1.1259278831859e+02 -6.0346346218912e+01
     21700  5.0487248587383e+02 -1.2733289728612e+04 2.6077852335933e+02 -1.2472511205253e+04 5.6118445715584e+01 5.9522600272707e+01 5.7275648817190e+01 0.0000000000000e+00 0.0000000000000e+00 0.0000000000000e+00 -5.3091062624875e+01 -5.3143928128563e+02 -6.1965782471665e+01 -8.9332530631102e+01 -8.2461094385153e+01 -1.3851810179265e+02
     21800  5.0100175934188e+02 -1.2735256805134e+04 2.5877920199092e+02 -1.2476477603143e+04 5.6118445715584e+01 5.9522600272707e+01 5.7275648817190e+01 0.0000000000000e+00 0.0000000000000e+00 0.0000000000000e+00 9.6775135743826e+02 7.1845984726067e+01 2.6643198155533e+02 -6.9615422919693e+01 -1.4744763857092e+02 -1.0083260965058e+02
     21900  4.9915977082315e+02 -1.2738082284930e+04 2.5782777156165e+02 -1.2480254513368e+04 5.6118445715584e+01 5.9522600272707e+01 5.7275648817190e+01 0.0000000000000e+00 0.0000000000000e+00 0.0000000000000e+00 1.2133798528307e+03 5.8457864913724e+02 7.5848780301117e+02 1.5242963448471e+01 -3.3699789969612e+02 -1.2579816303684e+02
     22000  4.9586167471999e+02 -1.2739369667781e+04 2.5612422728910e+02 -1.2483245440492e+04 5.6118445715584e+01 5.9522600272707e+01 5.7275648817190e+01 0.0000000000000e+00 0.0000000000000e+00 0.0000000000000e+00 8.3180065894406e+02 -2.2268020877532e+01 2.5463481636121e+02 8.5018358189717e+01 -2.0920237426351e+02 -1.6619703436203e+02
     22100  4.9190769494520e+02 -1.2737950113791e+04 2.5408190366103e+02 -1.2483868210130e+04 5.6118445715584e+01 5.9522600272707e+01 5.7275648817190e+01 0.0000000000000e+00 0.0000000000000e+00 0.0000000000000e+00 7.1548345094279e+00 -6.1358369993908e+01 -5.8203588478850e+01 6.4668942362361e+01 -1.0930559037957e+02 -1.6052775216993e+02
     22200  5.0285339277826e+02 -1.2738787857700e+04 2.5973561424718e+02 -1.2479052243453e+04 5.6118445715584e+01 5.9522600272707e+01 5.7275648817190e+01 0.0000000000000e+00 0.0000000000000e+00 0.0000000000000e+00 -1.3512086456995e+02 -1.4858088596740e+02 -2.3608526488197e+02 2.3484861330221e+01 7.8893574498032e+01 1.1767667572766e+01
     22300  4.9894166891739e+02 -1.2730324747084e+04 2.5771511679333e+02 -1.2472609630290e+04 5.6118445715584e+01 5.9522600272707e+01 5.7275648817190e+01 0.0000000000000e+00 0.0000000000000e+00 0.0000000000000e+00 -2.6861408710966e+02 -4.6353585942100e+02 -3.9416195027464e+02 1.0408901748315e+02 -2.1078882878907e+01 5.0472080136053e+01
     22400  5.0667076924663e+02 -1.2731711021880e+04 2.6170737905192e+02 -1.2470003642828e+04 5.6118445715584e+01 5.9522600272707e+01 5.7275648817190e+01 0.0000000000000e+00 0.0000000000000e+00 0.0000000000000e+00 -3.8979177672258e+02 -1.4348386313078e+02 -2.0752959337783e+02 -4.0232985564572e+01 1.2400332978210e+02 1.4075860349958e+02
     22500  5.0737055667314e+02 -1.2734509670627e+04 2.6206883573031e+02 -1.2472440834897e+04 5.6118445715584e+01 5.9522600272707e+01 5.7275648817190e+01 0.0000000000000e+00 0.0000000000000e+00 0.0000000000000e+00 -7.0538630882611e+02 -4.5061929794864e+02 -2.3609020599987e+02 1.1877018732398e+02 1.8777636314780e+02 4.4044629238058e+01
     22600  5.0614482826940e+02 -1.2740992354490e+04 2.6143571815684e+02 -1.2479556636333e+04 5.6118445715584e+01 5.9522600272707e+01 5.7275648817190e+01 0.0000000000000e+00 0.0000000000000e+00 0.0000000000000e+00 -8.0713594475576e+02 -5.6884553506179e+02 -1.3173446582362e+02 4.5019565184924e+01 1.0472940271223e+02 7.0146548188363e+01
     22700  5.0196687537425e+02 -1.2743224973453e+04 2.5927770713991e+02 -1.2483947266313e+04 5.6118445715584e+01 5.9522600272707e+01 5.7275648817190e+01 0.0000000000000e+00 0.0000000000000e+00 0.0000000000000e+00 -3.0221854939055e+01 2.8445276473857e+02 1.3200976783599e+02 -1.6028086410921e+02 2.2660869734685e+02 1.4292305617741e+02
[...]
     94600  4.9334822036498e+02 -1.2738587563425e+04 2.5482596894948e+02 -1.2483761594475e+04 5.6118445715584e+01 5.9522600272707e+01 5.7275648817190e+01 0.0000000000000e+00 0.0000000000000e+00 0.0000000000000e+00 6.3433986916584e+01 -3.1061339916431e+02 4.5360125187495e+02 -1.0868962323964e+02 2.7606214424670e+01 -1.5392438257107e+02
     94700  4.9546272928752e+02 -1.2737401194119e+04 2.5591816258228e+02 -1.2481483031537e+04 5.6118445715584e+01 5.9522600272707e+01 5.7275648817190e+01 0.0000000000000e+00 0.0000000000000e+00 0.0000000000000e+00 2.1875049824798e+02 1.7887893000450e+01 9.1718180561349e+02 -2.1330133577259e+02 2.0061164215528e+02 -2.5970151252562e+02
     94800  4.9621351947552e+02 -1.2731715630855e+04 2.5630596338755e+02 -1.2475409667467e+04 5.6118445715584e+01 5.9522600272707e+01 5.7275648817190e+01 0.0000000000000e+00 0.0000000000000e+00 0.0000000000000e+00 4.6296340030007e+02 -8.6067653144696e+01 8.4608626030982e+02 -1.5770230858629e+02 2.0489604981696e+02 -4.4081961167749e+01
     94900  4.9972265249460e+02 -1.2732123372539e+04 2.5811851319486e+02 -1.2474004859344e+04 5.6118445715584e+01 5.9522600272707e+01 5.7275648817190e+01 0.0000000000000e+00 0.0000000000000e+00 0.0000000000000e+00 4.6926301682976e+01 -4.5154451856357e+02 1.0958575833489e+02 -2.3484880289402e+02 1.9346054831435e+02 -6.7468788320118e+01
     95000  5.0623796901518e+02 -1.2736061369488e+04 2.6148382754452e+02 -1.2474577541944e+04 5.6118445715584e+01 5.9522600272707e+01 5.7275648817190e+01 0.0000000000000e+00 0.0000000000000e+00 0.0000000000000e+00 -1.0195231472991e+02 -1.2915618293873e+02 -1.7699799749273e+02 -1.7608898036734e+02 4.0224075839187e+02 -9.5784771380879e+00
     95100  4.9989085981903e+02 -1.2736513251737e+04 2.5820539623743e+02 -1.2478307855500e+04 5.6118445715584e+01 5.9522600272707e+01 5.7275648817190e+01 0.0000000000000e+00 0.0000000000000e+00 0.0000000000000e+00 1.2590765038882e+02 -7.8961659014591e+00 -4.5949118156280e+01 -3.0854119781500e+02 4.6904246530709e+02 1.1355186821136e+02
     95200  4.9359676469588e+02 -1.2735486922572e+04 2.5495434794698e+02 -1.2480532574625e+04 5.6118445715584e+01 5.9522600272707e+01 5.7275648817190e+01 0.0000000000000e+00 0.0000000000000e+00 0.0000000000000e+00 -3.2146215818038e+02 8.2377797079991e+01 -4.2182564708758e+02 -6.6674544772865e+01 1.3761549982330e+02 1.1952830839758e+02
     95300  5.0045354102358e+02 -1.2734856894992e+04 2.5849603432477e+02 -1.2476360860667e+04 5.6118445715584e+01 5.9522600272707e+01 5.7275648817190e+01 0.0000000000000e+00 0.0000000000000e+00 0.0000000000000e+00 -6.3114384990888e+02 -4.2513100468179e+02 -1.0709687094533e+03 -7.9387217019906e+01 1.3357742393773e+02 1.5095790891492e+02
     95400  4.9649571687234e+02 -1.2724650842276e+04 2.5645172498577e+02 -1.2468199117290e+04 5.6118445715584e+01 5.9522600272707e+01 5.7275648817190e+01 0.0000000000000e+00 0.0000000000000e+00 0.0000000000000e+00 3.4634449596812e+01 2.7801004509523e+02 -2.3486960137506e+02 -9.5301829665802e+01 1.5775961928307e+02 2.0574226321425e+02
     95500  5.0419628031469e+02 -1.2729200730392e+04 2.6042924727054e+02 -1.2468771483121e+04 5.6118445715584e+01 5.9522600272707e+01 5.7275648817190e+01 0.0000000000000e+00 0.0000000000000e+00 0.0000000000000e+00 -2.7126040896385e+01 9.6182247894548e+02 3.8788582284477e+02 -1.1707746340225e+02 1.1363873437577e+02 -1.7269697134562e+02
     95600  5.0056066504062e+02 -1.2732920724155e+04 2.5855136640121e+02 -1.2474369357754e+04 5.6118445715584e+01 5.9522600272707e+01 5.7275648817190e+01 0.0000000000000e+00 0.0000000000000e+00 0.0000000000000e+00 5.3502231813983e+01 9.3558366283802e+02 5.6461560885825e+02 -1.7641306944238e+02 -2.5585223425045e+02 9.3080750737518e+01
     95700  5.0607878368749e+02 -1.2739317462067e+04 2.6140160457563e+02 -1.2477915857491e+04 5.6118445715584e+01 5.9522600272707e+01 5.7275648817190e+01 0.0000000000000e+00 0.0000000000000e+00 0.0000000000000e+00 -3.3916791618509e+02 3.7642407678206e+02 3.1233512754281e+02 -2.6295130091977e+02 -1.2306916912296e+02 -7.7183142607145e+01
     95800  4.9468768005055e+02 -1.2735836652335e+04 2.5551783140718e+02 -1.2480318820928e+04 5.6118445715584e+01 5.9522600272707e+01 5.7275648817190e+01 0.0000000000000e+00 0.0000000000000e+00 0.0000000000000e+00 -8.2363807882729e+01 6.1115350914847e+01 -1.3779338693596e+02 -8.4941997679669e+01 -2.1911379138381e+02 -2.6085750441920e+01
     95900  4.9987369899217e+02 -1.2736790767965e+04 2.5819653226640e+02 -1.2478594235699e+04 5.6118445715584e+01 5.9522600272707e+01 5.7275648817190e+01 0.0000000000000e+00 0.0000000000000e+00 0.0000000000000e+00 2.1134612731399e+02 1.4395898698641e+02 -2.1995006366419e+02 7.3560697744050e+00 -4.4671706501569e+01 2.4974689674314e+02
     96000  5.1298297616239e+02 -1.2734988911508e+04 2.6496778250960e+02 -1.2470021128998e+04 5.6118445715584e+01 5.9522600272707e+01 5.7275648817190e+01 0.0000000000000e+00 0.0000000000000e+00 0.0000000000000e+00 1.0260924514389e+01 -3.6408993161461e+01 -2.3540651208152e+02 1.8653957402563e+02 -3.8000957104755e+02 1.4418006580003e+02
     96100  5.1206917880694e+02 -1.2733693517094e+04 2.6449578466525e+02 -1.2469197732429e+04 5.6118445715584e+01 5.9522600272707e+01 5.7275648817190e+01 0.0000000000000e+00 0.0000000000000e+00 0.0000000000000e+00 2.7051103833620e+02 -4.3057765266348e+02 -4.9164386799932e+02 2.4648095669914e+02 -4.2998948448911e+02 2.6968058807284e+02
     96200  5.0633734311411e+02 -1.2734137407414e+04 2.6153515660582e+02 -1.2472602250808e+04 5.6118445715584e+01 5.9522600272707e+01 5.7275648817190e+01 0.0000000000000e+00 0.0000000000000e+00 0.0000000000000e+00 -4.0707118192551e+02 -8.3013869042262e+02 -5.7653537739849e+02 1.3080178722349e+02 -4.2750760356897e+02 2.7244360089451e+02
     96300  5.0555906236510e+02 -1.2735519537236e+04 2.6113315627868e+02 -1.2474386380957e+04 5.6118445715584e+01 5.9522600272707e+01 5.7275648817190e+01 0.0000000000000e+00 0.0000000000000e+00 0.0000000000000e+00 1.1475800821634e+02 -2.7341751915985e+02 -9.4779851866184e+01 4.1770474371450e+02 -3.9819971907749e+02 -1.1081651047150e+02
     96400  4.9717910000901e+02 -1.2734180645706e+04 2.5680470846231e+02 -1.2477375937244e+04 5.6118445715584e+01 5.9522600272707e+01 5.7275648817190e+01 0.0000000000000e+00 0.0000000000000e+00 0.0000000000000e+00 4.0567092657195e+01 1.4667201124162e+02 5.3948823380006e+02 1.5785787498314e+02 -1.1354719466858e+02 -1.4472515505158e+02
     96500  5.0179115694773e+02 -1.2738314079683e+04 2.5918694443630e+02 -1.2479127135247e+04 5.6118445715584e+01 5.9522600272707e+01 5.7275648817190e+01 0.0000000000000e+00 0.0000000000000e+00 0.0000000000000e+00 4.0239495296640e+02 -1.1898684099866e+02 1.7167236983395e+02 2.7207271333000e+02 6.6912845616238e+00 -2.6985394872088e+02
     96600  4.9506040120658e+02 -1.2736974513190e+04 2.5571035065791e+02 -1.2481264162532e+04 5.6118445715584e+01 5.9522600272707e+01 5.7275648817190e+01 0.0000000000000e+00 0.0000000000000e+00 0.0000000000000e+00 5.1162099929628e+02 -3.0306554169409e+02 5.1322536596652e+02 2.1324525767049e+02 5.9719635224601e+01 -4.3761175032716e+02
     96700  4.9189931041687e+02 -1.2737425758401e+04 2.5407757285478e+02 -1.2483348185546e+04 5.6118445715584e+01 5.9522600272707e+01 5.7275648817190e+01 0.0000000000000e+00 0.0000000000000e+00 0.0000000000000e+00 4.0870438971823e+02 7.1203843967086e+00 6.5692952591507e+02 -6.1563020401280e+01 4.6226071769108e+02 -2.3425691487601e+02
     96800  4.9155930489049e+02 -1.2737135863377e+04 2.5390195199687e+02 -1.2483233911380e+04 5.6118445715584e+01 5.9522600272707e+01 5.7275648817190e+01 0.0000000000000e+00 0.0000000000000e+00 0.0000000000000e+00 -4.9203970997071e+01 -3.5392985987665e+02 2.3289347701786e+02 -9.6648290077204e+01 6.4058501562332e+02 -1.4146949845482e+02
     96900  4.9790454863312e+02 -1.2735844244722e+04 2.5717941975330e+02 -1.2478664824969e+04 5.6118445715584e+01 5.9522600272707e+01 5.7275648817190e+01 0.0000000000000e+00 0.0000000000000e+00 0.0000000000000e+00 -5.5887780258201e+01 -4.8788931864106e+02 3.2427975635050e+02 -1.5943237561533e+02 3.1775003773475e+02 -1.0648494689627e+02
     97000  5.0151143620069e+02 -1.2732119635461e+04 2.5904246208599e+02 -1.2473077173375e+04 5.6118445715584e+01 5.9522600272707e+01 5.7275648817190e+01 0.0000000000000e+00 0.0000000000000e+00 0.0000000000000e+00 -2.0909282592964e+02 -5.4014106087680e+02 -4.7827955768422e+02 -2.6105802644703e+02 3.0180634355630e+02 -1.4936296948624e+02
     97100  4.9830345871620e+02 -1.2727922148070e+04 2.5738546620132e+02 -1.2470536681868e+04 5.6118445715584e+01 5.9522600272707e+01 5.7275648817190e+01 0.0000000000000e+00 0.0000000000000e+00 0.0000000000000e+00 -6.4669624752664e+00 -2.0782976002560e+02 -1.8753413933020e+02 -3.8081344727826e+02 4.4978832088825e+02 1.3077937204045e+02
     97200  5.0544047142145e+02 -1.2735138878059e+04 2.6107190126472e+02 -1.2474066976794e+04 5.6118445715584e+01 5.9522600272707e+01 5.7275648817190e+01 0.0000000000000e+00 0.0000000000000e+00 0.0000000000000e+00 -4.7205303175083e+02 -3.0464459121750e+01 -4.7686635053470e+02 -1.4468493793437e+02 2.8194992052471e+02 2.0942810865952e+02
     97300  4.9577466973600e+02 -1.2738788848913e+04 2.5607928716682e+02 -1.2482709561746e+04 5.6118445715584e+01 5.9522600272707e+01 5.7275648817190e+01 0.0000000000000e+00 0.0000000000000e+00 0.0000000000000e+00 -2.4784400879256e+02 3.6958645463611e+02 -4.1991957877369e+02 -9.9150995449459e+00 2.2079149371395e+02 6.4940236079548e+01
     97400  4.9267377483103e+02 -1.2736956151432e+04 2.5447760195513e+02 -1.2482478549476e+04 5.6118445715584e+01 5.9522600272707e+01 5.7275648817190e+01 0.0000000000000e+00 0.0000000000000e+00 0.0000000000000e+00 -1.0252679717293e+02 5.7613065987385e+02 2.3516805279345e+02 -9.7920150549892e+01 -6.2430678135524e+01 6.0066107214418e+01
     97500  5.0076265043435e+02 -1.2736490689732e+04 2.5865569661169e+02 -1.2477834993121e+04 5.6118445715584e+01 5.9522600272707e+01 5.7275648817190e+01 0.0000000000000e+00 0.0000000000000e+00 0.0000000000000e+00 -2.3619015545141e+02 7.0082597083417e+02 -1.6105056184200e+02 -9.6793447055950e+01 -1.0015496391174e+02 1.6325273856025e+01
     97600  5.0952695090634e+02 -1.2735613111315e+04 2.6318266411202e+02 -1.2472430447203e+04 5.6118445715584e+01 5.9522600272707e+01 5.7275648817190e+01 0.0000000000000e+00 0.0000000000000e+00 0.0000000000000e+00 -6.9718296181531e+01 8.7725501067734e+02 -8.4946373395389e+01 4.9355904649878e+01 -2.7529600072820e+02 7.8533959136960e+01
     97700  5.0297252163465e+02 -1.2733201057852e+04 2.5979714710573e+02 -1.2473403910746e+04 5.6118445715584e+01 5.9522600272707e+01 5.7275648817190e+01 0.0000000000000e+00 0.0000000000000e+00 0.0000000000000e+00 2.8225816875685e+02 8.8338221943912e+02 4.3226068205888e+02 3.9318141269732e+01 -3.4272141246234e+02 1.1486654105140e+02
     97800  5.0207239286399e+02 -1.2736784231712e+04 2.5933220940718e+02 -1.2477452022304e+04 5.6118445715584e+01 5.9522600272707e+01 5.7275648817190e+01 0.0000000000000e+00 0.0000000000000e+00 0.0000000000000e+00 -1.1299089864290e+02 -1.3029006652238e+02 -1.9006063722112e+02 2.6712108677332e+01 -4.4852816069460e+02 -5.0700722360108e+01
     97900  4.9959209524938e+02 -1.2735440786418e+04 2.5805107730446e+02 -1.2477389709114e+04 5.6118445715584e+01 5.9522600272707e+01 5.7275648817190e+01 0.0000000000000e+00 0.0000000000000e+00 0.0000000000000e+00 -3.4577059119882e+02 -2.9584979212006e+02 -4.5814178006826e+02 7.8157980362805e+01 -3.5291303762495e+02 8.5191248789064e+01
     98000  4.9882591426152e+02 -1.2733048550706e+04 2.5765532678878e+02 -1.2475393223917e+04 5.6118445715584e+01 5.9522600272707e+01 5.7275648817190e+01 0.0000000000000e+00 0.0000000000000e+00 0.0000000000000e+00 -6.8573409724255e+01 -3.6617808434682e+02 -2.1848363256788e+02 -8.7977874514167e+01 -4.1795555237903e+02 2.6831362272853e+02
     98100  5.0304030244019e+02 -1.2735886485395e+04 2.5983215748731e+02 -1.2476054327908e+04 5.6118445715584e+01 5.9522600272707e+01 5.7275648817190e+01 0.0000000000000e+00 0.0000000000000e+00 0.0000000000000e+00 -1.3928159378799e+02 -4.3427441445144e+02 -4.2236515881495e+01 1.3718282219965e+02 -4.6157310718629e+02 1.7927460456461e+02
     98200  4.8884405014660e+02 -1.2733178319111e+04 2.5249945900613e+02 -1.2480678860105e+04 5.6118445715584e+01 5.9522600272707e+01 5.7275648817190e+01 0.0000000000000e+00 0.0000000000000e+00 0.0000000000000e+00 -1.2595563287145e+02 -7.6175179310095e+01 -1.8143676554201e+02 1.9824554715801e+02 -3.3088952756386e+02 1.4245294158619e+02
     98300  4.9171935713600e+02 -1.2740197080044e+04 2.5398462274921e+02 -1.2486212457295e+04 5.6118445715584e+01 5.9522600272707e+01 5.7275648817190e+01 0.0000000000000e+00 0.0000000000000e+00 0.0000000000000e+00 8.6371566614696e+01 -4.3803578108408e+02 1.7456937083435e+02 3.5606806638297e+02 -1.6345360432025e+02 1.1976724115458e+02
     98400  4.9529576191365e+02 -1.2743707316197e+04 2.5583192000336e+02 -1.2487875396194e+04 5.6118445715584e+01 5.9522600272707e+01 5.7275648817190e+01 0.0000000000000e+00 0.0000000000000e+00 0.0000000000000e+00 1.3073381464766e+02 -1.3100872773610e+02 1.0378025102011e+02 2.9887543542867e+02 -5.7023298785044e+01 3.8851487024192e+01
     98500  5.0340052921683e+02 -1.2738633700754e+04 2.6001822309698e+02 -1.2478615477657e+04 5.6118445715584e+01 5.9522600272707e+01 5.7275648817190e+01 0.0000000000000e+00 0.0000000000000e+00 0.0000000000000e+00 7.7862559731124e+02 3.6320153646795e+02 7.2137169313510e+02 1.3882183776838e+02 1.7883574366021e+02 -2.1600019574520e+02
     98600  5.0655785366787e+02 -1.2737111590955e+04 2.6164905549753e+02 -1.2475462535457e+04 5.6118445715584e+01 5.9522600272707e+01 5.7275648817190e+01 0.0000000000000e+00 0.0000000000000e+00 0.0000000000000e+00 2.2761621293904e+02 -2.0114123543926e+02 4.6127890911870e+02 -8.8207748754396e+01 3.9692718553165e+02 -4.0196186713068e+02
     98700  4.9359529531715e+02 -1.2732200928825e+04 2.5495358897828e+02 -1.2477247339847e+04 5.6118445715584e+01 5.9522600272707e+01 5.7275648817190e+01 0.0000000000000e+00 0.0000000000000e+00 0.0000000000000e+00 1.3137171561102e+02 -1.1273138671694e+02 3.9570220542779e+02 -5.6154784331367e+01 4.9986604260743e+02 -3.3397220262784e+02
     98800  5.0216541097779e+02 -1.2739852523351e+04 2.5938025545255e+02 -1.2480472267898e+04 5.6118445715584e+01 5.9522600272707e+01 5.7275648817190e+01 0.0000000000000e+00 0.0000000000000e+00 0.0000000000000e+00 -1.5833626877271e+02 -6.0696536383960e+02 -3.5727473181190e+01 -5.5734405256253e+01 4.9018117965704e+02 -2.9605514444759e+02
     98900  4.8318653439598e+02 -1.2735884275196e+04 2.4957721894629e+02 -1.2486307056249e+04 5.6118445715584e+01 5.9522600272707e+01 5.7275648817190e+01 0.0000000000000e+00 0.0000000000000e+00 0.0000000000000e+00 4.4649971206059e+01 -4.2247565158721e+02 -1.6332329770209e+02 -2.9677441597704e+02 4.3991192174295e+02 -4.2445878097342e+02
     99000  4.9239688502107e+02 -1.2742268867583e+04 2.5433458185047e+02 -1.2487934285732e+04 5.6118445715584e+01 5.9522600272707e+01 5.7275648817190e+01 0.0000000000000e+00 0.0000000000000e+00 0.0000000000000e+00 -3.8383782575564e+02 -5.4639412595038e+02 -4.6007145168344e+02 -1.5496900644706e+02 5.6895832794479e+02 -1.9040918835194e+02
     99100  4.9898309089932e+02 -1.2737399972861e+04 2.5773651222205e+02 -1.2479663460639e+04 5.6118445715584e+01 5.9522600272707e+01 5.7275648817190e+01 0.0000000000000e+00 0.0000000000000e+00 0.0000000000000e+00 5.6295265255093e+01 -3.0022823130736e+02 -1.1620327183916e+02 -2.6531589967285e+02 2.7224160635807e+02 -5.9176625763791e+01
     99200  4.9891529001059e+02 -1.2732746693183e+04 2.5770149146703e+02 -1.2475045201716e+04 5.6118445715584e+01 5.9522600272707e+01 5.7275648817190e+01 0.0000000000000e+00 0.0000000000000e+00 0.0000000000000e+00 -2.9610199016405e+02 1.4864464776783e+02 -5.2818794967949e+00 -1.6762265749153e+02 1.2989720087846e+02 5.3087015743838e+01
     99300  5.0625836530956e+02 -1.2736477086791e+04 2.6149436271068e+02 -1.2474982724080e+04 5.6118445715584e+01 5.9522600272707e+01 5.7275648817190e+01 0.0000000000000e+00 0.0000000000000e+00 0.0000000000000e+00 3.7966752948690e+02 9.3197160389422e+02 2.4948861815369e+02 -1.4143059516345e+02 -8.1529548534399e+01 1.7948356968904e+02
     99400  5.0394021557977e+02 -1.2739776224737e+04 2.6029698380734e+02 -1.2479479240930e+04 5.6118445715584e+01 5.9522600272707e+01 5.7275648817190e+01 0.0000000000000e+00 0.0000000000000e+00 0.0000000000000e+00 2.4351782527160e+02 6.4203007872220e+02 -4.4310122884687e+01 -1.2302559504026e+02 -3.7098300900181e+02 2.9080913375912e+02
     99500  4.9113109829076e+02 -1.2739148088954e+04 2.5368077320837e+02 -1.2485467315745e+04 5.6118445715584e+01 5.9522600272707e+01 5.7275648817190e+01 0.0000000000000e+00 0.0000000000000e+00 0.0000000000000e+00 -1.5141525787283e+02 3.9860295051364e+02 -4.1792640884573e+02 1.2371207193006e+02 -6.8670729677607e+01 3.0928299930429e+02
     99600  4.9407990965738e+02 -1.2740163738962e+04 2.5520390369254e+02 -1.2484959835269e+04 5.6118445715584e+01 5.9522600272707e+01 5.7275648817190e+01 0.0000000000000e+00 0.0000000000000e+00 0.0000000000000e+00 -3.1661603614983e+02 7.8778316735657e+02 -1.0134507162026e+02 -3.9302756442231e+01 -3.9769036145761e+02 1.2198988695433e+02
     99700  4.9419300512413e+02 -1.2734629796394e+04 2.5526232016332e+02 -1.2479367476231e+04 5.6118445715584e+01 5.9522600272707e+01 5.7275648817190e+01 0.0000000000000e+00 0.0000000000000e+00 0.0000000000000e+00 -2.4658669439540e+02 5.6627129299949e+02 1.0385397598244e+00 1.5455713674834e+02 -3.0501810027492e+02 6.8284955511885e+01
     99800  4.9967660713732e+02 -1.2736023504593e+04 2.5809472968395e+02 -1.2477928774909e+04 5.6118445715584e+01 5.9522600272707e+01 5.7275648817190e+01 0.0000000000000e+00 0.0000000000000e+00 0.0000000000000e+00 -2.0873589539646e+02 -1.2096325993824e+02 -2.1831889868701e+02 1.4063881282344e+02 -4.5776224555371e+02 2.4941805398147e+01
     99900  5.0594001538626e+02 -1.2737589000934e+04 2.6132992748152e+02 -1.2476259073453e+04 5.6118445715584e+01 5.9522600272707e+01 5.7275648817190e+01 0.0000000000000e+00 0.0000000000000e+00 0.0000000000000e+00 -2.1669616503997e+02 -4.7175437113196e+02 -2.3772068797331e+02 1.4077806968172e+02 -2.4078329190522e+02 4.3312749115990e+01
    100000  5.0036782022110e+02 -1.2733894821445e+04 2.5845175751247e+02 -1.2475443063933e+04 5.6118445715584e+01 5.9522600272707e+01 5.7275648817190e+01 0.0000000000000e+00 0.0000000000000e+00 0.0000000000000e+00 -2.5510222964638e+02 -1.6299275726389e+02 -7.7695001873796e-01 2.8787932917299e+02 -2.5976523134467e+02 4.6468719851070e+01
Loop time of 729.183 on 1 procs for 100000 steps with 3997 atoms

Performance: 11.849 ns/day, 2.026 hours/ns, 137.140 timesteps/s
100.0% CPU use with 1 MPI tasks x 1 OpenMP threads

MPI task timing breakdown:
Section |  min time  |  avg time  |  max time  |%varavg| %total
---------------------------------------------------------------
Pair    | 716.73     | 716.73     | 716.73     |   0.0 | 98.29
Neigh   | 6.526      | 6.526      | 6.526      |   0.0 |  0.89
Comm    | 0.43033    | 0.43033    | 0.43033    |   0.0 |  0.06
Output  | 0.067942   | 0.067942   | 0.067942   |   0.0 |  0.01
Modify  | 4.438      | 4.438      | 4.438      |   0.0 |  0.61
Other   |            | 0.9884     |            |       |  0.14

Nlocal:           3997 ave        3997 max        3997 min
Histogram: 1 0 0 0 0 0 0 0 0 0
Nghost:            662 ave         662 max         662 min
Histogram: 1 0 0 0 0 0 0 0 0 0
Neighs:         270638 ave      270638 max      270638 min
Histogram: 1 0 0 0 0 0 0 0 0 0

Total # of neighbors = 270638
Ave neighs/atom = 67.710283
Neighbor list builds = 1276
Dangerous builds = 0
Total wall time: 0:12:09
