ITEM: TIMESTEP
0
ITEM: NUMBER OF ATOMS
3997
ITEM: BOX BOUNDS mm mm mm
-2.8059222857791799e+01 2.8059222857791799e+01
-2.9761300136353700e+01 2.9761300136353700e+01
-2.8637824408595101e+01 2.8637824408595101e+01
ITEM: ATOMS id type x y z c_pe c_ke
3 1 -2.3382685714827e+00 -4.1335139078269e+00 -2.4342150747306e+01 -2.3899659434517e+00 1.1456567699491e-01
1 1 0.0000000000000e+00 -2.4801083446961e+00 -2.4342150747306e+01 -2.6323482217598e+00 2.4234974973343e-01
2 1 -4.6765371429653e+00 -8.2670278156540e-01 -2.4342150747306e+01 -2.3899659434517e+00 2.1449349526321e-02
12 1 -2.3382685714827e+00 8.2670278156540e-01 -2.4342150747306e+01 -2.6323482217598e+00 8.8722228545099e-02
6 1 2.3382685714826e+00 -8.2670278156540e-01 -2.4342150747306e+01 -2.6323482217598e+00 1.8627523983162e-01
16 1 4.6765371429653e+00 8.2670278156540e-01 -2.4342150747306e+01 -2.3899659434517e+00 4.4140356043114e-02
11 1 -0.0000000000000e+00 2.4801083446961e+00 -2.4342150747306e+01 -2.6323482217598e+00 6.4723709536458e-02
15 1 2.3382685714826e+00 4.1335139078269e+00 -2.4342150747306e+01 -2.3899659434517e+00 1.7566843020124e-01
23 1 -9.3530742859306e+00 -1.1573838941915e+01 -2.0046477086017e+01 -2.1401128886348e+00 2.0344783377163e-01
28 1 -4.6765371429653e+00 -1.3227244505046e+01 -2.0046477086017e+01 -2.6358810529294e+00 6.4581528693891e-02
33 1 -2.3382685714826e+00 -1.1573838941915e+01 -2.0046477086017e+01 -3.2524267050982e+00 2.0988826191735e-01
25 1 0.0000000000000e+00 -1.2400541723481e+01 -2.1478368306446e+01 -2.6379621177818e+00 7.8551260258695e-02
38 1 0.0000000000000e+00 -1.4880650068177e+01 -2.0046477086017e+01 -2.3901058583457e+00 2.7653447290051e-01
39 1 2.3382685714826e+00 -1.3227244505046e+01 -2.0046477086017e+01 -3.0370455175808e+00 9.6919269055228e-02
45 1 4.6765371429653e+00 -1.1573838941915e+01 -2.0046477086017e+01 -3.0136615156807e+00 2.6684794647899e-01
64 1 -1.1691342857413e+01 -8.2670278156538e+00 -2.0046477086017e+01 -2.4784713155567e+00 1.3181527724806e-01
19 1 -7.0148057144479e+00 -9.9204333787846e+00 -2.0046477086017e+01 -3.1208045604835e+00 4.4479064331334e-02
59 1 -7.0148057144479e+00 -7.4403250340884e+00 -2.1478368306446e+01 -2.9068178770588e+00 2.0664152574157e-01
31 1 -4.6765371429653e+00 -1.0747136160350e+01 -2.1478368306446e+01 -2.6358810529294e+00 4.8478455492961e-02
86 1 -4.6765371429653e+00 -8.2670278156538e+00 -2.2910259526876e+01 -2.3901058583457e+00 3.5516193252580e-02
87 1 -4.6765371429653e+00 -8.2670278156538e+00 -2.0046477086017e+01 -3.4568434873921e+00 1.5807711246691e-01
88 1 -2.3382685714827e+00 -9.0937305972192e+00 -2.1478368306446e+01 -3.2259591528354e+00 2.5521195582049e-01
24 1 0.0000000000000e+00 -9.9204333787846e+00 -2.0046477086017e+01 -3.4457512690664e+00 2.5882371997044e-01
42 1 0.0000000000000e+00 -9.9204333787846e+00 -2.2910259526876e+01 -2.3901058583457e+00 2.2461066573120e-01
43 1 2.3382685714826e+00 -1.0747136160350e+01 -2.1478368306446e+01 -3.0370455175808e+00 2.1028472837122e-01
79 1 0.0000000000000e+00 -7.4403250340884e+00 -2.1478368306446e+01 -3.3268552058951e+00 7.6894627315812e-02
110 1 2.3382685714826e+00 -8.2670278156538e+00 -2.2910259526876e+01 -2.6323482217598e+00 1.8315428256558e-01
111 1 2.3382685714827e+00 -8.2670278156538e+00 -2.0046477086017e+01 -3.4466301284740e+00 1.9344853086672e-01
112 1 4.6765371429653e+00 -9.0937305972192e+00 -2.1478368306446e+01 -3.0286848740818e+00 1.5171852190557e-01
35 1 7.0148057144479e+00 -9.9204333787846e+00 -2.0046477086017e+01 -3.0136615156807e+00 2.5306086556511e-01
103 1 7.0148057144479e+00 -7.4403250340884e+00 -2.1478368306446e+01 -3.0286848740818e+00 2.3512347171240e-01
131 1 9.3530742859306e+00 -8.2670278156538e+00 -2.0046477086017e+01 -3.0136615156807e+00 3.5352487833515e-02
60 1 -1.4029611428896e+01 -4.9602166893923e+00 -2.0046477086017e+01 -2.1401128886348e+00 4.1265908407866e-02
61 1 -1.1691342857413e+01 -3.3068111262615e+00 -2.0046477086017e+01 -3.1208045604834e+00 2.0032814276997e-01
55 1 -7.0148057144479e+00 -2.4801083446961e+00 -2.1478368306446e+01 -3.3754540115078e+00 3.3112333796712e-02
58 1 -7.0148057144479e+00 -4.9602166893923e+00 -2.2910259526876e+01 -2.4781875981676e+00 5.9776522539667e-02
65 1 -9.3530742859306e+00 -6.6136222525231e+00 -2.0046477086017e+01 -3.1043374328846e+00 1.1084604743390e-01
70 1 -9.3530742859306e+00 -4.1335139078269e+00 -2.1478368306446e+01 -2.9068178770588e+00 1.9156817482039e-01
80 1 -7.0148057144479e+00 -4.9602166893923e+00 -2.0046477086017e+01 -3.4451061022572e+00 2.3785646144348e-01
4 1 -4.6765371429653e+00 -3.3068111262615e+00 -2.2910259526876e+01 -3.0761131586337e+00 1.6952169800776e-01
5 1 -2.3382685714826e+00 -6.6136222525231e+00 -2.2910259526876e+01 -2.9069665559329e+00 1.6601696325979e-01
81 1 -4.6765371429653e+00 -5.7869194709577e+00 -2.1478368306446e+01 -3.3754540115078e+00 1.1559224408051e-01
82 1 -4.6765371429653e+00 -3.3068111262615e+00 -2.0046477086017e+01 -3.3938265183724e+00 2.0465286984239e-01
89 1 -2.3382685714827e+00 -6.6136222525231e+00 -2.0046477086017e+01 -3.4139813474240e+00 1.4599193485017e-01
94 1 -2.3382685714827e+00 -4.1335139078269e+00 -2.1478368306446e+01 -3.4411246188277e+00 8.6258191140887e-02
7 1 2.3382685714827e+00 -3.3068111262615e+00 -2.2910259526876e+01 -3.0693651089760e+00 2.3176671260282e-01
8 1 4.6765371429653e+00 -6.6136222525231e+00 -2.2910259526876e+01 -2.6267308390018e+00 1.1165960403628e-01
75 1 0.0000000000000e+00 -2.4801083446961e+00 -2.1478368306446e+01 -3.4463057455908e+00 3.5207019264614e-01
78 1 0.0000000000000e+00 -4.9602166893923e+00 -2.2910259526876e+01 -3.0732652624508e+00 1.4149915719723e-01
104 1 0.0000000000000e+00 -4.9602166893923e+00 -2.0046477086017e+01 -3.3938265183724e+00 1.9552668928748e-01
105 1 2.3382685714826e+00 -5.7869194709577e+00 -2.1478368306446e+01 -3.3107784397960e+00 1.5982439282988e-01
106 1 2.3382685714826e+00 -3.3068111262615e+00 -2.0046477086017e+01 -3.3936638288537e+00 1.4952853812214e-01
113 1 4.6765371429653e+00 -6.6136222525231e+00 -2.0046477086017e+01 -3.4464679371299e+00 6.8314080274538e-02
118 1 4.6765371429653e+00 -4.1335139078269e+00 -2.1478368306446e+01 -3.3107784397961e+00 3.8150443158367e-02
99 1 7.0148057144479e+00 -2.4801083446961e+00 -2.1478368306446e+01 -3.3268552058951e+00 1.5381787684326e-01
102 1 7.0148057144479e+00 -4.9602166893923e+00 -2.2910259526876e+01 -2.6323482217598e+00 1.9730242900238e-01
125 1 7.0148057144479e+00 -4.9602166893923e+00 -2.0046477086017e+01 -3.4466301284740e+00 1.1024786827965e-01
9 1 9.3530742859306e+00 -3.3068111262615e+00 -2.2910259526876e+01 -2.3901058583457e+00 2.4999291846676e-01
126 1 9.3530742859306e+00 -5.7869194709577e+00 -2.1478368306446e+01 -3.0370455175808e+00 1.1900973102065e-01
127 1 9.3530742859306e+00 -3.3068111262615e+00 -2.0046477086017e+01 -3.4457512690664e+00 9.2977189534540e-02
132 1 1.1691342857413e+01 -6.6136222525231e+00 -2.0046477086017e+01 -3.0370455175808e+00 1.0436120800135e-01
136 1 1.1691342857413e+01 -4.1335139078269e+00 -2.1478368306446e+01 -2.6379621177818e+00 1.6033809625114e-01
140 1 1.4029611428896e+01 -4.9602166893923e+00 -2.0046477086017e+01 -2.3901058583457e+00 2.0906864252311e-01
50 1 -1.4029611428896e+01 -0.0000000000000e+00 -2.0046477086017e+01 -2.6358810529294e+00 2.6101230786289e-02
67 1 -1.1691342857413e+01 -8.2670278156540e-01 -2.1478368306446e+01 -2.6358810529294e+00 6.4325655889761e-02
158 1 -1.1691342857413e+01 1.6534055631308e+00 -2.0046477086017e+01 -3.2524267050982e+00 1.5275278652932e-01
54 1 -7.0148057144479e+00 -0.0000000000000e+00 -2.0046477086017e+01 -3.4139813474240e+00 1.6990976460198e-01
69 1 -9.3530742859306e+00 -1.6534055631308e+00 -2.2910259526876e+01 -2.3901058583457e+00 1.5429192200599e-02
71 1 -9.3530742859306e+00 -1.6534055631308e+00 -2.0046477086017e+01 -3.4568434873921e+00 1.3781879493886e-01
85 1 -7.0148057144479e+00 -0.0000000000000e+00 -2.2910259526876e+01 -2.9069665559329e+00 1.3001958372668e-01
159 1 -9.3530742859306e+00 8.2670278156540e-01 -2.1478368306446e+01 -3.2259591528354e+00 1.4417487967841e-01
91 1 -4.6765371429653e+00 -8.2670278156540e-01 -2.1478368306446e+01 -3.4411246188277e+00 9.2567377100849e-02
93 1 -2.3382685714827e+00 -1.6534055631308e+00 -2.2910259526876e+01 -3.3515480570917e+00 1.9646585945404e-01
95 1 -2.3382685714826e+00 -1.6534055631308e+00 -2.0046477086017e+01 -3.3680683995593e+00 2.8234177514132e-01
178 1 -4.6765371429653e+00 1.6534055631308e+00 -2.2910259526876e+01 -3.0732652624508e+00 1.7532936826769e-01
179 1 -4.6765371429653e+00 1.6534055631308e+00 -2.0046477086017e+01 -3.3938265183724e+00 1.5236242761187e-01
180 1 -2.3382685714827e+00 8.2670278156540e-01 -2.1478368306446e+01 -3.4463057455908e+00 1.1594584907880e-01
74 1 0.0000000000000e+00 -0.0000000000000e+00 -2.0046477086017e+01 -3.3677424632325e+00 1.6651341508621e-01
109 1 0.0000000000000e+00 -0.0000000000000e+00 -2.2910259526876e+01 -3.3341527607560e+00 7.5016788219808e-02
115 1 2.3382685714826e+00 -8.2670278156540e-01 -2.1478368306446e+01 -3.4463057455908e+00 9.6189145939686e-02
117 1 4.6765371429653e+00 -1.6534055631308e+00 -2.2910259526876e+01 -3.0732652624508e+00 1.1127422005481e-01
119 1 4.6765371429653e+00 -1.6534055631308e+00 -2.0046477086017e+01 -3.3938265183724e+00 2.3419582398568e-02
202 1 2.3382685714826e+00 1.6534055631308e+00 -2.2910259526876e+01 -3.3515480570917e+00 2.6738782196457e-01
203 1 2.3382685714827e+00 1.6534055631308e+00 -2.0046477086017e+01 -3.3680683995593e+00 1.0605570077572e-02
204 1 4.6765371429653e+00 8.2670278156540e-01 -2.1478368306446e+01 -3.4411246188277e+00 1.5677454616887e-01
98 1 7.0148057144479e+00 -0.0000000000000e+00 -2.0046477086017e+01 -3.4139813474240e+00 7.2009804579770e-02
130 1 7.0148057144479e+00 -0.0000000000000e+00 -2.2910259526876e+01 -2.9069665559329e+00 1.1523874214162e-01
134 1 9.3530742859306e+00 -8.2670278156540e-01 -2.1478368306446e+01 -3.2259591528354e+00 2.6647497579447e-01
137 1 1.1691342857413e+01 -1.6534055631308e+00 -2.0046477086017e+01 -3.2524267050982e+00 4.3900679120235e-02
221 1 9.3530742859306e+00 1.6534055631308e+00 -2.2910259526876e+01 -2.3901058583457e+00 1.5511845968068e-01
222 1 9.3530742859306e+00 1.6534055631308e+00 -2.0046477086017e+01 -3.4568434873921e+00 1.5493745491926e-01
223 1 1.1691342857413e+01 8.2670278156540e-01 -2.1478368306446e+01 -2.6358810529294e+00 9.2063727520398e-02
122 1 1.4029611428896e+01 -0.0000000000000e+00 -2.0046477086017e+01 -2.6358810529294e+00 4.7076756954521e-02
153 1 -1.4029611428896e+01 4.9602166893923e+00 -2.0046477086017e+01 -2.3901058583457e+00 2.0949055266852e-01
154 1 -1.1691342857413e+01 4.1335139078269e+00 -2.1478368306446e+01 -2.6379621177818e+00 1.0127461630930e-01
155 1 -1.1691342857413e+01 6.6136222525230e+00 -2.0046477086017e+01 -3.0370455175808e+00 3.2941453462694e-01
10 1 -9.3530742859306e+00 3.3068111262615e+00 -2.2910259526876e+01 -2.3901058583457e+00 3.6369283765766e-01
151 1 -7.0148057144479e+00 4.9602166893923e+00 -2.2910259526876e+01 -2.6323482217598e+00 2.5760732464272e-01
152 1 -7.0148057144479e+00 2.4801083446961e+00 -2.1478368306446e+01 -3.3268552058951e+00 1.7955432995012e-01
160 1 -9.3530742859306e+00 3.3068111262615e+00 -2.0046477086017e+01 -3.4457512690664e+00 1.6564806508850e-01
163 1 -9.3530742859306e+00 5.7869194709577e+00 -2.1478368306446e+01 -3.0370455175808e+00 2.2318773968265e-01
173 1 -7.0148057144479e+00 4.9602166893923e+00 -2.0046477086017e+01 -3.4466301284740e+00 1.7357837780197e-01
13 1 -4.6765371429653e+00 6.6136222525231e+00 -2.2910259526876e+01 -2.6267308390018e+00 1.4345093648240e-01
14 1 -2.3382685714826e+00 3.3068111262615e+00 -2.2910259526876e+01 -3.0693651089760e+00 1.1305888436418e-01
174 1 -4.6765371429653e+00 4.1335139078269e+00 -2.1478368306446e+01 -3.3107784397961e+00 3.7575887301126e-02
175 1 -4.6765371429653e+00 6.6136222525230e+00 -2.0046477086017e+01 -3.4464679371299e+00 3.3979531874616e-01
181 1 -2.3382685714827e+00 3.3068111262615e+00 -2.0046477086017e+01 -3.3936638288537e+00 2.9644160394581e-01
186 1 -2.3382685714827e+00 5.7869194709577e+00 -2.1478368306446e+01 -3.3107784397960e+00 6.5836607986976e-02
17 1 2.3382685714827e+00 6.6136222525231e+00 -2.2910259526876e+01 -2.9069665559328e+00 2.2530377079419e-01
18 1 4.6765371429653e+00 3.3068111262615e+00 -2.2910259526876e+01 -3.0761131586337e+00 9.3355043278682e-02
171 1 0.0000000000000e+00 4.9602166893923e+00 -2.2910259526876e+01 -3.0732652624508e+00 1.1900369829607e-01
172 1 0.0000000000000e+00 2.4801083446961e+00 -2.1478368306446e+01 -3.4463057455908e+00 1.5880885650680e-01
196 1 0.0000000000000e+00 4.9602166893923e+00 -2.0046477086017e+01 -3.3938265183724e+00 3.2976522656896e-01
197 1 2.3382685714826e+00 4.1335139078269e+00 -2.1478368306446e+01 -3.4411246188277e+00 7.8332359276900e-02
198 1 2.3382685714826e+00 6.6136222525230e+00 -2.0046477086017e+01 -3.4139813474240e+00 5.1231628055245e-02
205 1 4.6765371429653e+00 3.3068111262615e+00 -2.0046477086017e+01 -3.3938265183724e+00 1.5806411091399e-01
210 1 4.6765371429653e+00 5.7869194709577e+00 -2.1478368306446e+01 -3.3754540115078e+00 1.4282391454485e-01
194 1 7.0148057144479e+00 4.9602166893923e+00 -2.2910259526876e+01 -2.4781875981676e+00 2.8294548020693e-01
195 1 7.0148057144479e+00 2.4801083446961e+00 -2.1478368306446e+01 -3.3754540115078e+00 8.5156686502633e-02
216 1 7.0148057144479e+00 4.9602166893923e+00 -2.0046477086017e+01 -3.4451061022572e+00 2.9400470194336e-02
217 1 9.3530742859306e+00 4.1335139078269e+00 -2.1478368306446e+01 -2.9068178770588e+00 2.2260832366117e-01
218 1 9.3530742859306e+00 6.6136222525230e+00 -2.0046477086017e+01 -3.1043374328846e+00 7.8609543286881e-02
224 1 1.1691342857413e+01 3.3068111262615e+00 -2.0046477086017e+01 -3.1208045604835e+00 2.2488957603456e-01
229 1 1.4029611428896e+01 4.9602166893923e+00 -2.0046477086017e+01 -2.1401128886348e+00 3.2576863704218e-02
147 1 -7.0148057144479e+00 9.9204333787846e+00 -2.0046477086017e+01 -3.0136615156807e+00 6.7973482495765e-02
148 1 -7.0148057144479e+00 7.4403250340884e+00 -2.1478368306446e+01 -3.0286848740819e+00 1.7534290150286e-01
164 1 -9.3530742859306e+00 8.2670278156538e+00 -2.0046477086017e+01 -3.0136615156807e+00 2.7049250651920e-01
183 1 -4.6765371429653e+00 9.0937305972192e+00 -2.1478368306446e+01 -3.0286848740819e+00 1.9889645764478e-01
185 1 -2.3382685714827e+00 8.2670278156538e+00 -2.2910259526876e+01 -2.6323482217598e+00 1.4756573479439e-01
187 1 -2.3382685714826e+00 8.2670278156538e+00 -2.0046477086017e+01 -3.4466301284740e+00 9.3340216647413e-02
239 1 -2.3382685714827e+00 1.0747136160350e+01 -2.1478368306446e+01 -3.0370455175808e+00 1.5011638686175e-01
167 1 0.0000000000000e+00 9.9204333787846e+00 -2.0046477086017e+01 -3.4457512690664e+00 2.2522198035847e-01
168 1 0.0000000000000e+00 7.4403250340884e+00 -2.1478368306446e+01 -3.3268552058951e+00 2.8372497773230e-01
201 1 0.0000000000000e+00 9.9204333787846e+00 -2.2910259526876e+01 -2.3901058583457e+00 2.6682543916835e-01
207 1 2.3382685714826e+00 9.0937305972192e+00 -2.1478368306446e+01 -3.2259591528354e+00 1.0256568114510e-01
209 1 4.6765371429653e+00 8.2670278156538e+00 -2.2910259526876e+01 -2.3901058583457e+00 1.0519422777456e-01
211 1 4.6765371429653e+00 8.2670278156538e+00 -2.0046477086017e+01 -3.4568434873922e+00 1.0373753129929e-01
249 1 4.6765371429653e+00 1.0747136160350e+01 -2.1478368306446e+01 -2.6358810529294e+00 8.7159708264219e-02
190 1 7.0148057144479e+00 9.9204333787846e+00 -2.0046477086017e+01 -3.1208045604834e+00 1.9137326086277e-01
191 1 7.0148057144479e+00 7.4403250340884e+00 -2.1478368306446e+01 -2.9068178770588e+00 3.3813762556228e-02
227 1 1.1691342857413e+01 8.2670278156538e+00 -2.0046477086017e+01 -2.4784713155567e+00 5.7634757001705e-02
238 1 -4.6765371429653e+00 1.1573838941915e+01 -2.0046477086017e+01 -3.0136615156807e+00 3.5319725828351e-01
240 1 -2.3382685714827e+00 1.3227244505046e+01 -2.0046477086017e+01 -3.0370455175808e+00 2.1700007775326e-01
235 1 0.0000000000000e+00 1.2400541723481e+01 -2.1478368306446e+01 -2.6379621177819e+00 8.8592703621028e-02
245 1 0.0000000000000e+00 1.4880650068177e+01 -2.0046477086017e+01 -2.3901058583457e+00 6.2872912301834e-02
248 1 2.3382685714827e+00 1.1573838941915e+01 -2.0046477086017e+01 -3.2524267050982e+00 2.6571049006128e-01
250 1 4.6765371429653e+00 1.3227244505046e+01 -2.0046477086017e+01 -2.6358810529294e+00 1.2876070532838e-01
254 1 9.3530742859306e+00 1.1573838941915e+01 -2.0046477086017e+01 -2.1401128886348e+00 1.2677228054542e-01
270 1 -7.0148057144479e+00 -1.7360758412873e+01 -1.5750803424727e+01 -2.4781875981676e+00 9.4497010264099e-02
34 1 -2.3382685714826e+00 -1.6534055631308e+01 -1.7182694645157e+01 -2.9069665559329e+00 2.0770860292770e-01
298 1 -2.3382685714827e+00 -1.9014163976004e+01 -1.5750803424727e+01 -2.3899659434516e+00 9.8497760854215e-02
46 1 4.6765371429653e+00 -1.6534055631308e+01 -1.7182694645157e+01 -2.6267308390018e+00 1.8877140151623e-01
290 1 0.0000000000000e+00 -1.7360758412873e+01 -1.5750803424727e+01 -3.0732652624508e+00 2.9963089821331e-02
313 1 7.0148057144479e+00 -1.7360758412873e+01 -1.5750803424727e+01 -2.6323482217598e+00 1.5984575020651e-01
22 1 -1.1691342857413e+01 -1.3227244505046e+01 -1.7182694645157e+01 -2.4784713155567e+00 8.3595484929572e-02
261 1 -1.4029611428896e+01 -1.2400541723481e+01 -1.5750803424727e+01 -2.8526197272769e+00 1.9074295379486e-01
20 1 -7.0148057144479e+00 -1.2400541723481e+01 -1.8614585865587e+01 -3.1208045604835e+00 1.0183438876599e-01
266 1 -7.0148057144479e+00 -1.2400541723481e+01 -1.5750803424727e+01 -3.3978312664921e+00 2.5688493727549e-01
269 1 -7.0148057144479e+00 -1.4880650068177e+01 -1.7182694645157e+01 -2.9068178770587e+00 1.7319308641695e-01
280 1 -9.3530742859306e+00 -1.1573838941915e+01 -1.7182694645157e+01 -3.3773943434873e+00 2.3108611018775e-01
281 1 -9.3530742859306e+00 -1.4053947286611e+01 -1.5750803424727e+01 -3.1043374328846e+00 2.7744246217392e-02
29 1 -4.6765371429653e+00 -1.5707352849742e+01 -1.8614585865587e+01 -2.3901058583458e+00 1.6477431741975e-01
30 1 -2.3382685714827e+00 -1.4053947286611e+01 -1.8614585865587e+01 -3.2259591528354e+00 1.5645471706045e-01
32 1 -4.6765371429653e+00 -1.3227244505046e+01 -1.7182694645157e+01 -3.4568434873921e+00 2.8313376229752e-01
292 1 -4.6765371429653e+00 -1.5707352849742e+01 -1.5750803424727e+01 -3.3754540115078e+00 1.3597965048942e-01
303 1 -2.3382685714827e+00 -1.1573838941915e+01 -1.7182694645157e+01 -3.3884901064869e+00 1.3962844411034e-01
304 1 -2.3382685714827e+00 -1.4053947286611e+01 -1.5750803424727e+01 -3.4139813474240e+00 5.9076225590566e-02
26 1 0.0000000000000e+00 -1.2400541723481e+01 -1.8614585865587e+01 -3.4457512690664e+00 3.4131233923141e-01
40 1 2.3382685714826e+00 -1.5707352849742e+01 -1.8614585865587e+01 -2.6323482217598e+00 2.0102242784317e-01
41 1 4.6765371429653e+00 -1.4053947286611e+01 -1.8614585865587e+01 -3.0286848740818e+00 1.7046137371948e-01
44 1 2.3382685714827e+00 -1.3227244505046e+01 -1.7182694645157e+01 -3.4466301284740e+00 1.2821564254678e-01
286 1 0.0000000000000e+00 -1.2400541723481e+01 -1.5750803424727e+01 -3.3679054314752e+00 1.0321535704560e-01
289 1 0.0000000000000e+00 -1.4880650068177e+01 -1.7182694645157e+01 -3.3268552058951e+00 1.6103081499181e-01
315 1 2.3382685714826e+00 -1.5707352849742e+01 -1.5750803424727e+01 -3.3107784397960e+00 1.6007552833947e-01
325 1 4.6765371429653e+00 -1.1573838941915e+01 -1.7182694645157e+01 -3.4213554458403e+00 2.1488176721429e-01
326 1 4.6765371429653e+00 -1.4053947286611e+01 -1.5750803424727e+01 -3.4464679371299e+00 4.6350881892125e-02
36 1 7.0148057144479e+00 -1.2400541723481e+01 -1.8614585865587e+01 -3.0136615156808e+00 9.6459330295557e-02
309 1 7.0148057144479e+00 -1.2400541723481e+01 -1.5750803424727e+01 -3.4213554458403e+00 4.8864124884192e-02
312 1 7.0148057144479e+00 -1.4880650068177e+01 -1.7182694645157e+01 -3.0286848740818e+00 2.5855599465961e-01
48 1 9.3530742859306e+00 -1.3227244505046e+01 -1.7182694645157e+01 -3.0136615156807e+00 6.4022092193149e-02
334 1 9.3530742859306e+00 -1.5707352849742e+01 -1.5750803424727e+01 -3.0370455175808e+00 8.9962088618131e-02
343 1 1.1691342857413e+01 -1.1573838941915e+01 -1.7182694645157e+01 -3.0286848740818e+00 2.7980522489544e-01
344 1 1.1691342857413e+01 -1.4053947286611e+01 -1.5750803424727e+01 -3.0370455175808e+00 1.3024369079883e-01
330 1 1.4029611428896e+01 -1.2400541723481e+01 -1.5750803424727e+01 -2.6323482217598e+00 6.2583200965682e-02
363 1 -1.6367880000378e+01 -9.0937305972192e+00 -1.5750803424727e+01 -2.8526197272769e+00 7.8540143606378e-02
21 1 -1.1691342857413e+01 -1.0747136160350e+01 -1.8614585865587e+01 -2.8526197272769e+00 2.6622714145463e-01
49 1 -1.4029611428896e+01 -7.4403250340884e+00 -1.8614585865587e+01 -2.8526197272769e+00 2.8304753112888e-02
275 1 -1.4029611428896e+01 -9.9204333787846e+00 -1.7182694645157e+01 -2.9530277689346e+00 1.0919856787536e-02
278 1 -1.1691342857413e+01 -1.0747136160350e+01 -1.5750803424727e+01 -3.4526886836096e+00 5.9737107050319e-02
358 1 -1.4029611428896e+01 -7.4403250340884e+00 -1.5750803424727e+01 -3.4526886836096e+00 2.9332759543811e-01
385 1 -1.1691342857413e+01 -8.2670278156538e+00 -1.7182694645157e+01 -3.4526886836096e+00 2.4891775707089e-01
53 1 -7.0148057144479e+00 -7.4403250340884e+00 -1.8614585865587e+01 -3.3978312664922e+00 1.2114785870670e-01
66 1 -9.3530742859306e+00 -9.0937305972192e+00 -1.8614585865587e+01 -3.3773943434873e+00 1.7999680345232e-01
296 1 -7.0148057144479e+00 -9.9204333787846e+00 -1.7182694645157e+01 -3.4136562971495e+00 3.2497054515104e-01
378 1 -7.0148057144479e+00 -7.4403250340884e+00 -1.5750803424727e+01 -3.3601630060683e+00 1.7453570932691e-01
387 1 -9.3530742859306e+00 -9.0937305972192e+00 -1.5750803424727e+01 -3.3754834929314e+00 1.1524544744690e-01
27 1 -4.6765371429653e+00 -1.0747136160350e+01 -1.8614585865587e+01 -3.4409631532051e+00 9.3555582926629e-02
90 1 -2.3382685714827e+00 -9.0937305972192e+00 -1.8614585865587e+01 -3.3884901064869e+00 3.7060106846521e-02
301 1 -4.6765371429653e+00 -1.0747136160350e+01 -1.5750803424727e+01 -3.3604889719211e+00 2.0604733386853e-01
409 1 -4.6765371429653e+00 -8.2670278156538e+00 -1.7182694645157e+01 -3.3604889719211e+00 1.3271604009086e-01
411 1 -2.3382685714827e+00 -9.0937305972192e+00 -1.5750803424727e+01 -3.3600000229052e+00 1.3413921815810e-01
37 1 2.3382685714826e+00 -1.0747136160350e+01 -1.8614585865587e+01 -3.4216804621790e+00 1.8028530003999e-01
73 1 -0.0000000000000e+00 -7.4403250340884e+00 -1.8614585865587e+01 -3.3679054314752e+00 4.4372736470991e-02
114 1 4.6765371429653e+00 -9.0937305972192e+00 -1.8614585865587e+01 -3.4213554458404e+00 1.8020041685399e-01
319 1 0.0000000000000e+00 -9.9204333787846e+00 -1.7182694645157e+01 -3.3603259890736e+00 1.0277701491490e-01
323 1 2.3382685714826e+00 -1.0747136160350e+01 -1.5750803424727e+01 -3.3600000229052e+00 1.9508705898209e-01
402 1 0.0000000000000e+00 -7.4403250340884e+00 -1.5750803424727e+01 -3.3600000229052e+00 2.9302490419340e-01
433 1 2.3382685714826e+00 -8.2670278156538e+00 -1.7182694645157e+01 -3.3600000229052e+00 2.0302262325987e-01
435 1 4.6765371429653e+00 -9.0937305972192e+00 -1.5750803424727e+01 -3.3600000229052e+00 2.5091129816995e-01
97 1 7.0148057144479e+00 -7.4403250340884e+00 -1.8614585865587e+01 -3.4213554458404e+00 1.6492247359603e-01
338 1 7.0148057144479e+00 -9.9204333787846e+00 -1.7182694645157e+01 -3.4213554458404e+00 1.6758900779926e-01
426 1 7.0148057144479e+00 -7.4403250340884e+00 -1.5750803424727e+01 -3.3600000229052e+00 6.7098961245960e-02
47 1 9.3530742859306e+00 -1.0747136160350e+01 -1.8614585865587e+01 -3.0136615156807e+00 9.6345185166935e-02
133 1 1.1691342857413e+01 -9.0937305972192e+00 -1.8614585865587e+01 -3.0286848740818e+00 9.8583654009154e-02
341 1 9.3530742859306e+00 -1.0747136160350e+01 -1.5750803424727e+01 -3.4213554458403e+00 1.0859811207473e-01
457 1 9.3530742859306e+00 -8.2670278156538e+00 -1.7182694645157e+01 -3.4213554458404e+00 7.2829339345664e-02
459 1 1.1691342857413e+01 -9.0937305972192e+00 -1.5750803424727e+01 -3.4464679371299e+00 1.5608715499831e-01
121 1 1.4029611428896e+01 -7.4403250340884e+00 -1.8614585865587e+01 -2.6323482217598e+00 2.6887633399596e-01
349 1 1.4029611428896e+01 -9.9204333787846e+00 -1.7182694645157e+01 -2.6267308390018e+00 3.1370875364680e-01
450 1 1.4029611428896e+01 -7.4403250340884e+00 -1.5750803424727e+01 -3.3107784397960e+00 1.8523553393245e-01
52 1 -1.6367880000378e+01 -6.6136222525231e+00 -1.7182694645157e+01 -2.4784713155567e+00 1.4495909945385e-02
369 1 -1.6367880000378e+01 -4.1335139078269e+00 -1.5750803424727e+01 -3.1043374328846e+00 2.7408365120450e-02
51 1 -1.4029611428896e+01 -2.4801083446961e+00 -1.8614585865587e+01 -3.1208045604835e+00 1.2870186420736e-01
62 1 -1.1691342857413e+01 -5.7869194709577e+00 -1.8614585865587e+01 -3.3773943434873e+00 1.5278267911933e-01
68 1 -1.1691342857413e+01 -3.3068111262615e+00 -1.7182694645157e+01 -3.4136562971495e+00 1.1812449444746e-01
354 1 -1.4029611428896e+01 -2.4801083446961e+00 -1.5750803424727e+01 -3.3978312664921e+00 1.4241297440971e-01
357 1 -1.4029611428896e+01 -4.9602166893923e+00 -1.7182694645157e+01 -3.3773943434873e+00 1.7979760584315e-01
380 1 -1.1691342857413e+01 -5.7869194709577e+00 -1.5750803424727e+01 -3.3754834929314e+00 2.0432577696266e-01
56 1 -7.0148057144479e+00 -2.4801083446961e+00 -1.8614585865587e+01 -3.3680683995593e+00 1.3609643005507e-01
63 1 -9.3530742859306e+00 -4.1335139078269e+00 -1.8614585865587e+01 -3.3978312664922e+00 1.6968763197910e-01
72 1 -9.3530742859306e+00 -6.6136222525231e+00 -1.7182694645157e+01 -3.3936638288537e+00 1.7043712502935e-02
374 1 -7.0148057144479e+00 -2.4801083446961e+00 -1.5750803424727e+01 -3.3600000229052e+00 7.2830623299518e-02
377 1 -7.0148057144479e+00 -4.9602166893923e+00 -1.7182694645157e+01 -3.3604889719211e+00 1.2519535744216e-01
393 1 -9.3530742859306e+00 -4.1335139078269e+00 -1.5750803424727e+01 -3.3601630060683e+00 1.1138039712872e-01
83 1 -4.6765371429653e+00 -5.7869194709577e+00 -1.8614585865587e+01 -3.3680683995593e+00 4.9189922432762e-02
84 1 -2.3382685714827e+00 -4.1335139078269e+00 -1.8614585865587e+01 -3.3601630060683e+00 1.6253197655936e-01
92 1 -4.6765371429653e+00 -3.3068111262615e+00 -1.7182694645157e+01 -3.3600000229052e+00 1.8684851983044e-01
96 1 -2.3382685714826e+00 -6.6136222525231e+00 -1.7182694645157e+01 -3.3600000229052e+00 1.1185634552270e-01
404 1 -4.6765371429653e+00 -5.7869194709577e+00 -1.5750803424727e+01 -3.3600000229052e+00 1.6985902150613e-01
417 1 -2.3382685714827e+00 -4.1335139078269e+00 -1.5750803424727e+01 -3.3600000229052e+00 4.1127212050198e-03
76 1 0.0000000000000e+00 -2.4801083446961e+00 -1.8614585865587e+01 -3.3600000229052e+00 2.9523787131450e-01
107 1 2.3382685714826e+00 -5.7869194709577e+00 -1.8614585865587e+01 -3.3677424632325e+00 1.2437833419686e-01
108 1 4.6765371429653e+00 -4.1335139078269e+00 -1.8614585865587e+01 -3.3677424632325e+00 1.3764656170658e-01
116 1 2.3382685714827e+00 -3.3068111262615e+00 -1.7182694645157e+01 -3.3600000229052e+00 6.4340950311768e-02
120 1 4.6765371429653e+00 -6.6136222525231e+00 -1.7182694645157e+01 -3.3600000229052e+00 1.0491860000959e-01
398 1 0.0000000000000e+00 -2.4801083446961e+00 -1.5750803424727e+01 -3.3600000229052e+00 2.2707528442238e-02
401 1 0.0000000000000e+00 -4.9602166893923e+00 -1.7182694645157e+01 -3.3600000229052e+00 1.9594916527686e-02
428 1 2.3382685714826e+00 -5.7869194709577e+00 -1.5750803424727e+01 -3.3600000229052e+00 1.3244738470504e-01
441 1 4.6765371429653e+00 -4.1335139078269e+00 -1.5750803424727e+01 -3.3600000229052e+00 1.5919301670643e-01
100 1 7.0148057144479e+00 -2.4801083446961e+00 -1.8614585865587e+01 -3.3679054314752e+00 1.4134391596644e-01
422 1 7.0148057144479e+00 -2.4801083446961e+00 -1.5750803424727e+01 -3.3600000229052e+00 1.3765474841434e-01
425 1 7.0148057144479e+00 -4.9602166893923e+00 -1.7182694645157e+01 -3.3600000229052e+00 1.7832675449103e-01
128 1 9.3530742859306e+00 -5.7869194709577e+00 -1.8614585865587e+01 -3.4216804621790e+00 7.4512778516536e-02
129 1 1.1691342857413e+01 -4.1335139078269e+00 -1.8614585865587e+01 -3.4457512690664e+00 2.3857228830541e-01
135 1 9.3530742859306e+00 -3.3068111262615e+00 -1.7182694645157e+01 -3.3603259890736e+00 1.8534308714102e-01
138 1 1.1691342857413e+01 -6.6136222525231e+00 -1.7182694645157e+01 -3.4466301284740e+00 9.8094927757409e-03
452 1 9.3530742859306e+00 -5.7869194709577e+00 -1.5750803424727e+01 -3.3600000229052e+00 2.0847635972256e-01
465 1 1.1691342857413e+01 -4.1335139078269e+00 -1.5750803424727e+01 -3.3679054314752e+00 1.2732282294304e-01
123 1 1.4029611428896e+01 -2.4801083446961e+00 -1.8614585865587e+01 -3.2259591528354e+00 1.6875589028449e-01
141 1 1.6367880000378e+01 -3.3068111262615e+00 -1.7182694645157e+01 -2.9069665559329e+00 2.1372022064126e-01
446 1 1.4029611428896e+01 -2.4801083446961e+00 -1.5750803424727e+01 -3.4139813474240e+00 3.2926053419002e-01
449 1 1.4029611428896e+01 -4.9602166893923e+00 -1.7182694645157e+01 -3.3268552058951e+00 1.4898157611369e-01
471 1 1.6367880000378e+01 -5.7869194709577e+00 -1.5750803424727e+01 -3.0732652624508e+00 2.8638731352483e-01
481 1 1.8706148571861e+01 -4.1335139078269e+00 -1.5750803424727e+01 -2.3899659434516e+00 1.2031307779009e-01
144 1 -1.6367880000378e+01 8.2670278156540e-01 -1.8614585865587e+01 -2.3901058583458e+00 1.8958288274895e-01
366 1 -1.8706148571861e+01 -8.2670278156540e-01 -1.5750803424727e+01 -2.4781875981676e+00 2.5137318419106e-01
368 1 -1.6367880000378e+01 -1.6534055631308e+00 -1.7182694645157e+01 -2.9068178770588e+00 8.3610037316399e-02
497 1 -1.6367880000378e+01 8.2670278156540e-01 -1.5750803424727e+01 -3.3754540115078e+00 3.1270697621374e-01
57 1 -1.1691342857413e+01 -8.2670278156540e-01 -1.8614585865587e+01 -3.4409631532051e+00 1.4315927949563e-01
384 1 -1.4029611428896e+01 -0.0000000000000e+00 -1.7182694645157e+01 -3.4568434873921e+00 1.9759109217800e-01
390 1 -1.1691342857413e+01 -8.2670278156540e-01 -1.5750803424727e+01 -3.3604889719211e+00 1.9959750522480e-01
517 1 -1.1691342857413e+01 1.6534055631308e+00 -1.7182694645157e+01 -3.3884901064869e+00 1.5357889707121e-01
161 1 -9.3530742859306e+00 8.2670278156540e-01 -1.8614585865587e+01 -3.3884901064869e+00 1.3969106561664e-01