ITEM: TIMESTEP
100000
ITEM: NUMBER OF ATOMS
3997
ITEM: BOX BOUNDS mm mm mm
-2.8059222857791799e+01 2.8059222857791799e+01
-2.9761300136353700e+01 2.9761300136353700e+01
-2.8637824408595101e+01 2.8637824408595101e+01
ITEM: ATOMS id type x y z c_pe c_ke
261 1 -9.1520112962766e+00 -1.0380697617821e+01 -1.9771674798793e+01 -2.7777666103835e+00 8.9231292072396e-02
271 1 -4.2956423645879e+00 -1.0504827428305e+01 -2.0289778504174e+01 -3.1567537618009e+00 1.2776186231586e-02
270 1 -7.9748042336603e-01 -1.2075847860744e+01 -2.1193013323977e+01 -2.9688968573982e+00 1.5157633609063e-02
276 1 -3.1943688091483e+00 -1.3110119550249e+01 -1.9904240819621e+01 -2.9174514742768e+00 5.5464904316579e-02
291 1 -1.9618093391633e+00 -1.0783025517616e+01 -1.9098771128695e+01 -3.2800345208888e+00 1.2145803298399e-01
258 1 5.0022278707067e-01 -1.4532177130065e+01 -2.0725869237899e+01 -2.5503350097069e+00 6.8942182401712e-02
34 1 1.5024822983785e+00 -1.1239411987450e+01 -2.2468672246967e+01 -2.5538232337365e+00 1.0414172852409e-01
298 1 3.7984562457356e+00 -1.2137847372979e+01 -2.1382914079314e+01 -2.4192800031321e+00 8.1811611764339e-02
297 1 1.6518096049479e+00 -1.2457516265932e+01 -1.9874486018011e+01 -3.2187735869516e+00 2.0606961922538e-01
703 1 -3.2598213092723e+00 -1.9504735275480e+01 -1.4529924256809e+01 -2.7443920416950e+00 5.5030385363786e-02
740 1 -1.0135904050941e+01 -1.4655950548689e+01 -1.5319695879031e+01 -2.9782079413419e+00 3.0003716424644e-03
733 1 -6.7473193085306e+00 -1.6757176858723e+01 -1.6124218632969e+01 -2.7466387871656e+00 6.3320176985716e-02
736 1 -8.8770534678162e+00 -1.7357334604258e+01 -1.4615491021559e+01 -2.5362948863796e+00 1.6073463520776e-01
756 1 -4.3185428574360e+00 -1.6002722360286e+01 -1.7407499003456e+01 -2.7138387162956e+00 5.2227492155071e-02
757 1 -4.1140743843626e+00 -1.6914343981331e+01 -1.5033898178197e+01 -3.2682168683158e+00 7.2952533896597e-02
277 1 -1.8122807015765e+00 -1.5219867986862e+01 -1.9308108076236e+01 -2.7293252815842e+00 2.1766057742623e-02
758 1 -1.7789497068253e+00 -1.6453854962373e+01 -1.6834167677295e+01 -3.1084088933424e+00 4.8548160953193e-02
704 1 -1.0620401586238e+00 -1.8982609942988e+01 -1.5924948501974e+01 -2.5303950748284e+00 9.9559031704940e-03
759 1 -2.4828644765909e+00 -1.4634519080998e+01 -1.4518341390031e+01 -3.3492195381653e+00 4.3414902313038e-02
709 1 6.4189840672098e-01 -1.5510031377634e+01 -1.7958248651369e+01 -2.9776693867287e+00 1.0528622240382e-01
701 1 4.9534025044184e-01 -1.6835452223446e+01 -1.5621595697588e+01 -3.1402110045213e+00 3.3772134545474e-02
710 1 3.2170252468796e+00 -1.6320224384055e+01 -1.6806938918757e+01 -2.9900528042994e+00 2.6456619335691e-02
702 1 1.6690797641029e+00 -1.9125906406714e+01 -1.5493844811161e+01 -2.5694700845334e+00 3.7381372613971e-02
713 1 5.4498370411448e+00 -1.6461717812743e+01 -1.5543898483030e+01 -2.8576705465230e+00 4.1612156606645e-02
706 1 5.5759496842570e+00 -1.4888843504013e+01 -1.7979542095768e+01 -2.6274593304313e+00 1.5144519124340e-02
717 1 8.4315416536785e+00 -1.5427690747945e+01 -1.6706312935049e+01 -2.4333137493983e+00 3.8107858371116e-02
873 1 -1.5268936292985e+01 -1.0492759596596e+01 -1.4695130449467e+01 -3.0330918459122e+00 6.5041939561737e-02
263 1 -1.1315252629727e+01 -1.1093767827464e+01 -1.8142009849870e+01 -2.7606099986315e+00 6.2037817435620e-02
739 1 -1.1700965081828e+01 -1.2714374491784e+01 -1.6186739243036e+01 -3.0403874580072e+00 9.5099447043559e-02
362 1 -1.3744192492986e+01 -1.1191260682495e+01 -1.6774986502086e+01 -2.5774372462009e+00 8.1842295862551e-02
737 1 -1.3776309054739e+01 -1.2868049729097e+01 -1.4357788685323e+01 -3.0003315418294e+00 8.5050203284018e-02
1410 1 2.0373985483077e+00 -1.0088815995014e+01 -6.7360964280714e+00 -3.2697220747534e+00 2.0371912577382e-01
272 1 -6.6574896347062e+00 -1.1033139675469e+01 -1.9137420179915e+01 -3.1541201582624e+00 1.0805364144959e-01
262 1 -9.0296461224996e+00 -1.1988597031914e+01 -1.7353827237983e+01 -3.0807874091100e+00 4.2327032658581e-02
751 1 -5.5311962791164e+00 -1.4431833761480e+01 -1.5485282679705e+01 -3.2775134596823e+00 4.7938284348490e-02
732 1 -8.0177243049811e+00 -1.4386967902192e+01 -1.7105653783173e+01 -2.8676528171779e+00 1.2756508157255e-02
273 1 -5.4316753215442e+00 -1.3598295510231e+01 -1.8372671678336e+01 -2.9792281302173e+00 2.4825562153386e-02
279 1 -6.6385780825750e+00 -1.2097426025898e+01 -1.6514072093070e+01 -3.2868375354262e+00 5.0948756043718e-02
729 1 -8.7668044055220e+00 -1.2646212924815e+01 -1.4731429826298e+01 -3.2727824543052e+00 7.3305592112259e-02
749 1 -2.8916979541974e-01 -1.3892450301070e+01 -1.6211136141347e+01 -3.2751517221511e+00 4.1421890078951e-02
274 1 -4.0570492906700e+00 -1.1460986002972e+01 -1.7804653103572e+01 -3.2807502394902e+00 6.3787838794755e-02
283 1 -2.8822521531467e+00 -1.3890931301123e+01 -1.7069522396630e+01 -3.3653935731856e+00 4.2928642377028e-03
264 1 -7.1454664254806e-01 -1.2966975337335e+01 -1.8765705670790e+01 -3.2760295031486e+00 1.9382975968213e-01
748 1 -1.5851798002115e+00 -1.1552920060118e+01 -1.6440555777264e+01 -3.3012464646398e+00 8.9403082036455e-03
764 1 -3.7965548730534e+00 -1.2384794109547e+01 -1.5001560800302e+01 -3.2872768597833e+00 2.5747202282947e-02
712 1 2.8968703881888e+00 -1.4720339264818e+01 -1.9493487439893e+01 -2.7158615938179e+00 4.9191572188380e-02
781 1 2.3736358244206e+00 -1.4256497667307e+01 -1.4758827174778e+01 -3.2858300644452e+00 1.3392164881040e-01
782 1 4.3267830512097e+00 -1.3634289883322e+01 -1.6101454037170e+01 -3.1731923088934e+00 1.2260120574342e-02
294 1 7.8502167225422e-01 -1.1224022717257e+01 -1.7798168429044e+01 -3.2734290611454e+00 5.7929144121888e-02
780 1 1.9034021585492e+00 -1.3686527349006e+01 -1.7438098032666e+01 -3.1132532328771e+00 4.4433564272486e-02
306 1 3.4637551487483e+00 -1.1059758824660e+01 -1.6515670841357e+01 -3.2241218535106e+00 6.0249298306685e-02
775 1 1.0478988972486e+00 -1.1901094511104e+01 -1.5181990074371e+01 -3.2573028604555e+00 5.4893652768285e-02
300 1 4.2509310148470e+00 -1.2578345171028e+01 -1.8388906218840e+01 -3.1491089628982e+00 3.8875872168979e-02
705 1 7.2899078701067e+00 -1.3776816308317e+01 -1.5001005755517e+01 -3.3039647333144e+00 3.9037590201427e-02
257 1 7.3657840066900e+00 -1.2802139691855e+01 -1.7826432014911e+01 -2.8138826090600e+00 1.6737443945872e-01
284 1 5.7643367238705e+00 -1.0088603961555e+01 -1.8251483876921e+01 -3.2344890864940e+00 9.3088930058185e-02
804 1 8.4966205542372e+00 -1.0878858781978e+01 -1.6862750030021e+01 -3.2204826074781e+00 3.0872201335269e-01
773 1 5.8943179551899e+00 -1.1321587117826e+01 -1.5504632332622e+01 -3.3040767577016e+00 2.1528578569690e-02
718 1 1.0221986928389e+01 -1.3340917549966e+01 -1.5750727319870e+01 -3.1672337209953e+00 3.2076939864542e-02
719 1 1.0429969303143e+01 -1.2332134783898e+01 -1.8165098652355e+01 -2.4705637767396e+00 1.2405756653985e-01
721 1 1.2956331071561e+01 -1.2941787495846e+01 -1.6068066597390e+01 -2.7986631085681e+00 3.0805630119397e-02
724 1 1.3536774458689e+01 -1.0171450891979e+01 -1.6882866415569e+01 -2.8642066408853e+00 4.5875561363724e-02
806 1 1.1224145572684e+01 -1.0872027041732e+01 -1.5959737645855e+01 -3.3389257435577e+00 8.1426746994680e-03
1529 1 -5.6025683919390e+00 -1.0054797082298e+01 -7.6743459373677e+00 -3.2135419215799e+00 2.5108094467997e-01
725 1 1.5730828342250e+01 -1.0724040791998e+01 -1.5851817893547e+01 -2.4454395626548e+00 3.9368746209280e-02
1306 1 -5.6187332613148e+00 -1.9912476992809e+01 -1.3351691341922e+01 -2.5243105758016e+00 2.2707045916433e-01
1301 1 -5.4100759995710e+00 -2.1305545923274e+01 -1.0712101197561e+01 -2.5676428649489e+00 4.0656243841851e-02
1307 1 -3.1899233723840e+00 -2.0444816480946e+01 -1.1974982252593e+01 -3.0845142577818e+00 6.8286835269391e-02
1308 1 -7.4058823681158e-01 -2.0433991938881e+01 -1.3405548571148e+01 -2.8304533159930e+00 1.5777521676648e-01
1309 1 -6.5770859151242e-01 -2.0653988323323e+01 -1.0738554231352e+01 -2.9327935535855e+00 8.9672831776263e-02
1303 1 1.7771982706035e+00 -2.0335630006139e+01 -1.2524220511132e+01 -2.8718708596653e+00 2.0511126568085e-01
1314 1 4.4337292893713e+00 -2.0548938124544e+01 -1.1168229038726e+01 -3.0427546552592e+00 1.0644783744112e-02
1315 1 6.9850258357507e+00 -2.0780276207853e+01 -9.8313310689339e+00 -3.0611858205538e+00 1.2375229878460e-01
1326 1 9.5820254508017e+00 -2.0049919826503e+01 -1.1083335429668e+01 -2.4732555213320e+00 1.2270459014271e-01
734 1 -1.2637073905484e+01 -1.5132462632159e+01 -1.4157577204559e+01 -2.4415180130119e+00 6.6505915700926e-02
738 1 -1.2148711056504e+01 -1.6544166901650e+01 -1.1255714137791e+01 -2.9854824111517e+00 1.8087942060062e-03
735 1 -1.0188072899906e+01 -1.5877377439101e+01 -1.2960080077967e+01 -3.2214396998752e+00 4.2113968171389e-02
1352 1 -1.1499079540259e+01 -1.9014745942857e+01 -1.0445538077702e+01 -2.5531277186331e+00 6.0554766805057e-02
1361 1 -9.5813015000782e+00 -1.6816260563076e+01 -9.7846947967887e+00 -3.3569108355564e+00 7.0031230265701e-02
742 1 -9.0625628359056e+00 -1.8469281823919e+01 -1.2061747220163e+01 -2.9019635401363e+00 2.0726880756900e-02
1350 1 -7.6446649383710e+00 -1.6048073895755e+01 -1.1666927259088e+01 -3.3388732829968e+00 1.3471045097043e-01
750 1 -7.6157693938543e+00 -1.5102369914010e+01 -1.4200906324230e+01 -3.3217567428954e+00 8.8769477316568e-02
727 1 -6.3609036478756e+00 -1.7465965339226e+01 -1.3299605224644e+01 -3.1745639858396e+00 3.5790421718409e-02
753 1 -4.9494758468953e+00 -1.5382288084240e+01 -1.3077610056927e+01 -3.1946451274828e+00 4.1441688872038e-02
1351 1 -6.6182303969388e+00 -1.8849564920733e+01 -1.1004569391399e+01 -3.2336104028715e+00 5.8765911377443e-02
1372 1 -5.1311609934274e+00 -1.6304394735284e+01 -1.0692630235231e+01 -3.2750656198093e+00 1.6163931159457e-01
1377 1 -3.9051059296116e+00 -1.7854105380271e+01 -1.2426014190126e+01 -3.2272619855026e+00 2.6359813996990e-02
766 1 -2.7616054055831e+00 -1.5791706283239e+01 -1.1807277964802e+01 -3.1269966052315e+00 7.9828606081629e-02
760 1 -1.5291793366459e+00 -1.7347745784416e+01 -1.3830220729400e+01 -3.3788960524493e+00 4.9853976389805e-02
743 1 7.1215767569665e-02 -1.5297094389569e+01 -1.3560807738652e+01 -3.2351915409202e+00 1.5735898851637e-02
1379 1 -1.5501156782189e+00 -1.8303219410791e+01 -1.1314295114489e+01 -3.2908117098864e+00 1.3770577199149e-01
1370 1 2.6428779446289e-03 -1.5947831550764e+01 -1.0987298958596e+01 -3.2765923676948e+00 1.9987258567567e-02
1378 1 -4.1361833797086e+00 -1.9038205471433e+01 -9.6114778102542e+00 -3.3983640250069e+00 8.8974688983808e-02
711 1 4.0225391780943e+00 -1.9705769659309e+01 -1.3839876025729e+01 -2.6584221681983e+00 6.2981686692898e-02
1316 1 8.9396352855282e-01 -1.8196857601440e+01 -1.3045759130253e+01 -3.2579007666837e+00 1.0649095587953e-01
1401 1 2.4886777604773e+00 -1.5476077273087e+01 -1.2141523894833e+01 -3.3050613514767e+00 1.8481467479024e-01
708 1 2.9403452360050e+00 -1.7094861954225e+01 -1.4216953038988e+01 -3.3059097346721e+00 6.4086416763893e-02
1317 1 3.3488392758998e+00 -1.8120839221063e+01 -1.1575853501207e+01 -3.3828137325610e+00 1.8374117565814e-01
1302 1 9.4729463950659e-01 -1.8793981129045e+01 -1.0062456083080e+01 -3.3410703684280e+00 1.9158434402247e-02
784 1 5.0120901257981e+00 -1.5084993895331e+01 -1.3464145275188e+01 -3.2420765032389e+00 7.3186594450477e-02
1320 1 6.8048235722777e+00 -1.9687603657949e+01 -1.2245497515555e+01 -2.6595337416293e+00 2.3593701506700e-02
1403 1 4.9353006137599e+00 -1.5874060747416e+01 -1.0718795485367e+01 -3.2834961747656e+00 4.9391545417339e-02
1319 1 5.5648885476271e+00 -1.7522608450770e+01 -1.2827921815360e+01 -3.2035650569300e+00 9.0341238383866e-02
707 1 8.0194287197619e+00 -1.6558322417711e+01 -1.4272766315110e+01 -2.9373829288898e+00 1.0970288023062e-01
1329 1 7.2516132725736e+00 -1.5173143284948e+01 -1.1986421034679e+01 -3.3018100141119e+00 4.4666123489671e-02
1311 1 8.3223460851317e+00 -1.7768319081620e+01 -1.1505782663112e+01 -3.2878784563337e+00 2.0813749260491e-02
1321 1 5.8265913519900e+00 -1.8277866609766e+01 -1.0250839175363e+01 -3.3349884062619e+00 1.0402110362369e-02
722 1 1.1902508367321e+01 -1.5158372089947e+01 -1.4814165520664e+01 -2.6999479762006e+00 8.4722965217669e-02
1330 1 9.8751415529632e+00 -1.5505930137126e+01 -1.0722677697715e+01 -3.2461669125046e+00 9.5617119453787e-02
720 1 1.0691256687902e+01 -1.7061513858379e+01 -1.3109456517930e+01 -2.8397461580500e+00 2.4682944337052e-02
1332 1 1.2003391180104e+01 -1.4469977369986e+01 -1.2101954009709e+01 -3.3030400425220e+00 4.5660250838599e-03
1333 1 1.2844997265269e+01 -1.7159615122796e+01 -1.1531101494000e+01 -2.6046649737322e+00 2.3451190688304e-02
1327 1 1.0859088022627e+01 -1.7754873295582e+01 -1.0070738727133e+01 -3.1090661897326e+00 3.2923735317874e-02
716 1 9.4872821287223e+00 -1.4564870486594e+01 -1.3431459978927e+01 -3.3222280792261e+00 1.8167071903545e-01
1323 1 1.4624509969509e+01 -1.5052470825620e+01 -1.0864271905045e+01 -2.8854893018756e+00 1.4990829592334e-02
859 1 -1.9026477533523e+01 -1.2578672816241e+01 -9.5669714032778e+00 -2.5488179092207e+00 6.5481201853366e-02
851 1 -1.6870610699727e+01 -1.2046826696500e+01 -1.0791907294626e+01 -3.0841606790304e+00 3.3147240809126e-03
726 1 -1.6180054431969e+01 -1.3450312092452e+01 -1.2833004131752e+01 -2.5082580131273e+00 2.9946137632799e-02
874 1 -1.4734024203505e+01 -1.1410617480812e+01 -1.2111582195561e+01 -3.3390362257554e+00 5.9102104403336e-02
856 1 -1.7540364493393e+01 -1.1066350726611e+01 -1.3250498021497e+01 -2.6474144109228e+00 2.6734282538363e-02
1356 1 -1.6000229503980e+01 -1.4724802876369e+01 -1.0187778816708e+01 -2.8451914484652e+00 5.3612732778516e-02
1503 1 -1.4549931797966e+01 -1.2470173370466e+01 -9.5791838402856e+00 -3.3340658350257e+00 6.5811219975035e-02
731 1 -1.3619349574914e+01 -1.4088096512465e+01 -1.2013557338879e+01 -3.2298119914985e+00 3.0371674846774e-01
875 1 -1.2466472131922e+01 -1.0715321555823e+01 -1.3785182366718e+01 -3.4126512535685e+00 2.0035804976102e-02
741 1 -1.1162688723511e+01 -1.3167900899749e+01 -1.3361291692580e+01 -3.3582600327655e+00 1.5155558223051e-01
728 1 -9.6398252493386e+00 -1.0979731591234e+01 -1.2632678012407e+01 -3.3139164602848e+00 2.6514353986137e-02
877 1 -1.2064634690217e+01 -1.1869875421990e+01 -1.1068352075839e+01 -3.3820245318733e+00 3.5426888102619e-02
1360 1 -1.0646044306380e+01 -1.4339111411924e+01 -1.0482733670150e+01 -3.3271439049364e+00 1.7235693013219e-01
1376 1 -9.4479255691848e+00 -1.1938535448827e+01 -9.7793643898015e+00 -3.3155845880426e+00 4.0828429771196e-04
730 1 -8.6742327745955e+00 -1.3585792650815e+01 -1.2133904530415e+01 -3.3531154291952e+00 3.5168259730743e-02
761 1 -7.5071251345527e+00 -1.0176909319967e+01 -1.4195482848848e+01 -3.2741782095691e+00 1.6417331432901e-03
752 1 -6.2741840495739e+00 -1.2873569098281e+01 -1.3637180347492e+01 -3.2875947837070e+00 5.6886322442145e-02
747 1 -7.0977448013397e+00 -1.1262773757868e+01 -1.1439142053554e+01 -3.3217588864438e+00 1.4959504836611e-02
762 1 -6.0771245303871e+00 -1.3667434017352e+01 -1.0908623811014e+01 -3.3088548272908e+00 5.7051025896305e-02
765 1 -4.5900166191215e+00 -1.0550635789640e+01 -1.2877884467281e+01 -3.3106796563270e+00 1.8920975648126e-02
1384 1 -4.5081600037517e+00 -1.1549166083598e+01 -9.9197563739313e+00 -3.3057870710298e+00 7.0945352422594e-02
754 1 -3.5098609963757e+00 -1.3140527366553e+01 -1.2315445139763e+01 -3.2693055468734e+00 6.0828483116878e-02
774 1 -1.1181253715496e+00 -1.2466841128676e+01 -1.3806192239759e+01 -3.3011331731185e+00 9.2158996153748e-02
746 1 -2.3097844136070e+00 -1.1104733651894e+01 -1.1372162668073e+01 -3.1772910702259e+00 6.7921282613631e-02
1369 1 -1.1412508721464e+00 -1.3500177028826e+01 -1.1096462097670e+01 -3.3027261004687e+00 8.9442549133009e-02
2223 1 -8.6203692518558e-01 -1.0075588090824e+01 -4.3146089648770e-01 -3.3336496918522e+00 1.1044299619769e-01
776 1 2.9099061223921e-01 -9.9909731866439e+00 -1.2904982083420e+01 -3.2057399326568e+00 2.2897247893978e-02
777 1 1.2303207011142e+00 -1.2550810739617e+01 -1.2409410673997e+01 -3.2416276524897e+00 1.0283747897399e-01
790 1 3.8385825000587e+00 -1.3189970168570e+01 -1.1628164364203e+01 -3.2940271758896e+00 7.8196628550889e-02
783 1 3.4742994890229e+00 -1.1852417092018e+01 -1.3900522658774e+01 -3.2550482936936e+00 4.4106803457969e-02
778 1 2.7013984990636e+00 -1.0560239495243e+01 -1.1612929365306e+01 -3.2538866266797e+00 1.0702786719869e-01
786 1 4.9725848290491e-01 -1.1126182129502e+01 -1.0255106727480e+01 -3.2827984872695e+00 2.5418210376135e-02
1393 1 5.1834318347396e+00 -1.0857718085493e+01 -1.0362491297547e+01 -3.2200777594501e+00 5.9537739515557e-02
767 1 6.2637390838011e+00 -1.2516259560723e+01 -1.2760919983556e+01 -3.3266750410901e+00 3.3402777173723e-01
1425 1 8.9515842066746e+00 -1.2747575431354e+01 -1.1425670986956e+01 -3.3037827027961e+00 2.6081686999374e-02
805 1 8.8091142801083e+00 -1.1841963969276e+01 -1.4182207574254e+01 -3.2744393495792e+00 5.5819938286049e-02
801 1 7.8102243446517e+00 -1.0063206436563e+01 -1.2161595069177e+01 -3.2385504530835e+00 9.3639158963284e-02
1394 1 6.2745066173375e+00 -1.3692860540597e+01 -1.0067242043387e+01 -3.2524186127586e+00 5.5709473210650e-02
259 1 1.1469858057446e+01 -9.8557656772860e+00 -1.8776195015032e+01 -2.6889435925176e+00 6.4967144517550e-02
1337 1 1.3641088386634e+01 -1.2103476918148e+01 -1.1541310264211e+01 -3.3598393047580e+00 5.7401133061900e-02
808 1 1.1408756091550e+01 -1.2364357284330e+01 -1.3266945818658e+01 -3.3674988689147e+00 3.8961965487254e-02
714 1 1.3322182373717e+01 -1.1042511907167e+01 -1.4218445234320e+01 -3.3098305827852e+00 5.3668780668779e-02
814 1 1.0263050782416e+01 -1.0531271890380e+01 -1.0844003724977e+01 -3.1564453357386e+00 2.2075910945829e-01
1427 1 1.1419016529359e+01 -1.2772944415563e+01 -1.0150033549410e+01 -3.2446558545835e+00 3.1015561298577e-02
2122 1 1.8095118196221e+01 -1.2458726372285e+01 -3.9261949555954e+00 -3.3935255869874e+00 7.5759449844836e-02
715 1 1.4072520608404e+01 -1.3876390205224e+01 -1.3801062004923e+01 -2.8346676458727e+00 6.5386705028514e-02
723 1 1.5655994653768e+01 -1.1559100700684e+01 -1.3253263602197e+01 -2.9509619210927e+00 2.6894563751608e-02
1449 1 1.5173665312617e+01 -9.9753483464673e+00 -1.1060751422143e+01 -3.2396711135506e+00 8.8070841077473e-02
1338 1 1.6488528998590e+01 -1.2586877794216e+01 -1.0511855068084e+01 -2.9699609840564e+00 8.2494056357290e-02
2023 1 -1.1116214689993e+01 -2.1418535557618e+01 -5.2467792001528e+00 -2.6184481944156e+00 6.7550828911604e-03
1363 1 -8.9012682237602e+00 -2.0387438677501e+01 -6.9392659595199e+00 -3.0711140511641e+00 1.5596231680887e-01
1976 1 -5.3184267079789e+00 -2.2447527373476e+01 -7.6728600331682e+00 -2.6028353657638e+00 4.5520481807644e-03
2022 1 -6.1127448892660e+00 -2.0690888661470e+01 -5.9144318376223e+00 -3.1972921298811e+00 1.0449329191998e-02
1345 1 -6.2764645402925e+00 -1.9765186045644e+01 -8.2739497716188e+00 -3.2351260605721e+00 5.8025918553391e-02
2048 1 -3.7339727810782e+00 -2.0097576698262e+01 -7.0162373089967e+00 -3.3563151503934e+00 6.6670014430379e-03
1305 1 -3.1607566047071e+00 -2.1798651913466e+01 -8.9433742470596e+00 -2.9357354513138e+00 1.6636185943783e-01
1977 1 -2.6737983762320e+00 -2.2915455600360e+01 -6.5641163882548e+00 -2.9115338095227e+00 9.8944948654169e-02
1978 1 -4.0948518652450e-01 -2.2072356043956e+01 -8.3566514335506e+00 -2.9453048212383e+00 1.9401425041236e-01
2050 1 -1.1413602590180e+00 -2.0608785094275e+01 -6.1682575676697e+00 -3.3573197552409e+00 6.5307209878376e-02
1979 1 -1.5078043523709e-01 -2.3041756165031e+01 -5.5644970614517e+00 -3.0012685753915e+00 7.5120108489595e-02
1304 1 1.8559956666124e+00 -2.1493794963561e+01 -9.8614577741071e+00 -2.9999201077944e+00 2.4664349877778e-01
1973 1 2.1784198267718e+00 -2.2526098148237e+01 -7.1213103538564e+00 -2.9548259885799e+00 1.5641947764561e-01
1988 1 3.5927257039035e+00 -2.0251179394298e+01 -6.3660412218179e+00 -3.4086283580774e+00 4.1816165719100e-02
1987 1 9.8835226306819e-01 -2.0006545255068e+01 -7.5387740255372e+00 -3.3467224488577e+00 1.3443944750379e-02
1318 1 4.4203570191331e+00 -2.1752929196829e+01 -8.7514257852557e+00 -2.9328496226402e+00 7.3575079955446e-02
1985 1 4.7839840451051e+00 -2.2749693061671e+01 -5.6610489051193e+00 -2.9917482497825e+00 9.2433628636286e-02
1991 1 7.0449531950327e+00 -2.2094541722187e+01 -7.2480608607821e+00 -2.9732073237535e+00 8.2508200915778e-02
1981 1 8.3790001323035e+00 -1.9738861726612e+01 -6.3033266986182e+00 -3.3178386884328e+00 1.6301534886550e-01
1984 1 9.3617997465577e+00 -2.1201670650219e+01 -8.5475406132291e+00 -2.6551756680906e+00 1.4610878995541e-01
1997 1 9.5457656962192e+00 -2.2165616229276e+01 -5.6297084368041e+00 -2.7076985497547e+00 3.2402659298886e-02
1998 1 1.1497026498549e+01 -2.0322046680810e+01 -5.1310974132122e+00 -2.9756618795930e+00 4.4339141390183e-02
1343 1 -1.4147275471035e+01 -1.7139144009927e+01 -1.0005558948515e+01 -2.4219531634957e+00 1.0133790583992e-01
1344 1 -1.4060942195929e+01 -1.8202308950351e+01 -7.2895577067962e+00 -2.8076025643416e+00 7.3777772975569e-03
1342 1 -1.5648595364928e+01 -1.5598474321010e+01 -7.6620677055246e+00 -3.0119208038374e+00 2.8519586703747e-02
2027 1 -1.5476057981157e+01 -1.6648399673290e+01 -4.9995315411690e+00 -3.0353894698288e+00 4.0902609614194e-02
1354 1 -1.1284415863147e+01 -2.0136710603073e+01 -7.8592935521895e+00 -2.7130537996088e+00 2.8278086619244e-01
1349 1 -1.2902257861899e+01 -1.5999398035633e+01 -6.3766126836920e+00 -3.3442776536265e+00 1.9254654134744e-01
1353 1 -1.1843343400952e+01 -1.7504048048234e+01 -8.4796221013688e+00 -3.2129125020251e+00 2.3596336981703e-02
1355 1 -9.6500248126249e+00 -1.7683428414026e+01 -7.2452062998185e+00 -3.3305163402538e+00 2.1186213243695e-01
1362 1 -1.0754435429646e+01 -1.5162323177422e+01 -7.8967649076409e+00 -3.3011855095417e+00 3.0412118304013e-02
1359 1 -1.1939260197626e+01 -1.8775931520436e+01 -5.6825743951442e+00 -3.1882655500296e+00 2.8751724980397e-02
2031 1 -1.0665212464255e+01 -1.6646719698480e+01 -5.0974145429328e+00 -3.2129875813228e+00 8.9408888085391e-03
1357 1 -8.8763078743235e+00 -1.9310806104042e+01 -9.3897788996260e+00 -3.0711400354563e+00 9.2498031131755e-02
1348 1 -8.1688300185860e+00 -1.5540997604341e+01 -6.5748360891032e+00 -3.3185358659833e+00 3.8645582964426e-02
1371 1 -7.1730600503640e+00 -1.7221131854944e+01 -8.6890888008668e+00 -3.3403717396211e+00 5.3595404255342e-02
1374 1 -4.7762677569173e+00 -1.7615550206197e+01 -7.3202083490681e+00 -3.2681645272598e+00 5.3348542510445e-02
2021 1 -7.2190552520552e+00 -1.8148504343111e+01 -6.0953773059795e+00 -3.3533213462733e+00 4.2719211726215e-02
1383 1 -5.6072807615894e+00 -1.6074669806059e+01 -5.1797866050938e+00 -3.2899417428412e+00 1.7949291559885e-01
1373 1 -5.6226043155429e+00 -1.4904200046751e+01 -8.1441359141965e+00 -3.2357938758967e+00 8.6051607275735e-02
1381 1 -1.5723084603617e+00 -1.9502411355233e+01 -8.7430438077396e+00 -3.3089702552134e+00 1.9682068193080e-03
1380 1 -2.4429823895088e+00 -1.6816800951276e+01 -9.2430857211854e+00 -3.3035808300330e+00 7.3443391198837e-02
1364 1 -1.2113671955310e-02 -1.6944660456218e+01 -8.0600893240232e+00 -3.2548731731884e+00 6.4915486034777e-03
1387 1 -2.0621123537229e+00 -1.7670341035782e+01 -6.4380918768770e+00 -3.2974353791206e+00 5.3033417303870e-02
2040 1 -6.4459288240303e-01 -1.5504336096828e+01 -5.5321539765486e+00 -3.3388854980099e+00 6.9316427914512e-02
1375 1 -3.5220540933055e+00 -1.5354025886769e+01 -6.7559827060190e+00 -3.2125116269197e+00 5.6575554410379e-02
2043 1 -4.5565984401212e+00 -1.8630387978599e+01 -4.8209015315031e+00 -3.2757835160359e+00 2.1408816575886e-01
1313 1 3.4916388690436e+00 -1.9054050691295e+01 -9.0225483545299e+00 -3.3607334681432e+00 4.5644366128493e-03
1402 1 2.4533700563638e+00 -1.6487888138852e+01 -9.5941003846125e+00 -3.2911557315406e+00 8.0689663984740e-02
2072 1 2.6559667508020e+00 -1.7751123222296e+01 -6.7099491490003e+00 -3.2629143930858e+00 1.0874602485578e-01
1411 1 4.3732462040753e+00 -1.5182088265990e+01 -5.8593636048716e+00 -3.2268109389883e+00 1.0922361556254e-01
2041 1 4.4788748829346e-01 -1.8117363304925e+01 -5.1782821133826e+00 -3.2646347816025e+00 3.8925933037092e-02
1398 1 1.7579496666380e+00 -1.4898223974298e+01 -7.1728093229220e+00 -3.3163737675441e+00 2.6461444459060e-02
1990 1 5.9520277351469e+00 -1.9402062766446e+01 -7.8729089718912e+00 -3.3559572403505e+00 3.5181622094319e-01
1405 1 5.1244607790075e+00 -1.6798020664639e+01 -8.0299187399691e+00 -3.3300927749985e+00 5.4539245738549e-02
1312 1 8.6628664322197e+00 -1.8600295540168e+01 -8.9574701007278e+00 -3.3152562086833e+00 1.2946346095724e-01
1310 1 7.6990415213241e+00 -1.6179765946627e+01 -9.2792517156709e+00 -3.3024707949408e+00 1.8085436522294e-02
2000 1 7.6327423094031e+00 -1.7217208987898e+01 -6.8371172823794e+00 -3.2874512642956e+00 4.7270936592866e-02
2074 1 5.1663313930335e+00 -1.7880831680415e+01 -5.5078759143252e+00 -3.3311262199405e+00 4.8141445687883e-02
2004 1 1.3584889468937e+01 -1.9310616569769e+01 -6.1734965781370e+00 -2.5257127650148e+00 9.6898116577826e-02
1325 1 1.0475851412073e+01 -1.6338694058882e+01 -7.9213091159087e+00 -3.3231934515937e+00 9.3241655632073e-02
1331 1 1.1011121268925e+01 -1.9334752629401e+01 -7.6322880962413e+00 -3.1547118908365e+00 3.2699706314747e-02
1328 1 1.3367132904171e+01 -1.7862323194338e+01 -8.8805437070723e+00 -2.7733543094128e+00 5.8130180708015e-02
1334 1 1.2161406087023e+01 -1.5272113890932e+01 -9.5744005443691e+00 -3.3079865726770e+00 3.9817235336426e-02
2003 1 1.2895582657141e+01 -1.6573911902307e+01 -6.6815456825947e+00 -3.2416860568549e+00 1.0255017892960e-02
2001 1 1.0195000010162e+01 -1.7555122972286e+01 -5.5417894353266e+00 -3.3491516497625e+00 6.8361671513563e-02
1324 1 1.4767219731490e+01 -1.5670272246997e+01 -8.2455967295103e+00 -3.0648945613539e+00 7.8734802866574e-03
1339 1 1.7397475003296e+01 -1.5765541262153e+01 -6.9586808275997e+00 -2.3902049873545e+00 1.1253315763552e-01
1994 1 1.5464696915284e+01 -1.7154305196721e+01 -5.2722933596372e+00 -2.9864326431342e+00 2.1854981135614e-01
1485 1 -1.9008267765852e+01 -1.3508144787104e+01 -6.7728975061140e+00 -2.6866935257919e+00 3.1959855950228e-02
1487 1 -1.9987185901985e+01 -1.1035198951250e+01 -7.2382860861912e+00 -3.0098627022235e+00 5.4787552464559e-02
1482 1 -1.7948781430766e+01 -1.0325452710904e+01 -8.4798243261270e+00 -3.3114751675603e+00 5.4473623161924e-02
1497 1 -1.7671245622917e+01 -1.1325448020663e+01 -5.9791662813671e+00 -3.3783760625176e+00 9.5996711356919e-02
1498 1 -1.5270672773108e+01 -1.0693645964361e+01 -7.2840083753017e+00 -3.3396095766678e+00 9.1851769765497e-02
1483 1 -1.6768170196273e+01 -1.2856280162530e+01 -8.1998972742527e+00 -3.2687506726115e+00 2.9938966051966e-02
1504 1 -1.4193849319051e+01 -1.3627208304005e+01 -6.7453527710798e+00 -3.3100145745896e+00 4.1899689095008e-02
1478 1 -1.6843936765438e+01 -1.4224505585563e+01 -5.5213519967310e+00 -3.1549008443594e+00 1.2584796834794e-01
1500 1 -1.5194297630022e+01 -1.1945675727768e+01 -4.7707538872384e+00 -3.3065100600544e+00 6.4360834679836e-02
1358 1 -1.3283845404293e+01 -1.5053848266572e+01 -9.1336689418840e+00 -3.3001039830592e+00 8.4345502064478e-02
1505 1 -1.1998389815175e+01 -1.2860587255755e+01 -8.2519344715546e+00 -3.2915693010596e+00 3.3300103590159e-02
1506 1 -1.2500970934297e+01 -1.1166114930783e+01 -6.2433136508754e+00 -3.2619376340610e+00 1.1993490759881e-01
1507 1 -1.1625211933475e+01 -1.3776018909980e+01 -5.5558264076066e+00 -3.2419879663710e+00 1.0021288841232e-01
1496 1 -1.0419374165636e+01 -1.0482290573210e+01 -7.8341116254213e+00 -3.2428256588824e+00 5.4660759066730e-02
2107 1 2.0009819906863e+01 -1.0934424814813e+01 -4.5415905176389e-01 -3.1575831939429e+00 8.9997935971382e-03
1490 1 -1.0049511295578e+01 -1.1203632262595e+01 -5.0637984917635e+00 -3.2762517579806e+00 2.0539818169654e-03
1346 1 -9.3545347833702e+00 -1.2889518510258e+01 -7.1902757238521e+00 -3.3127654566506e+00 1.4339100901217e-02
1347 1 -8.0904171087094e+00 -1.4478914268782e+01 -9.4666417581324e+00 -3.2395750324934e+00 9.2593482733736e-03
1528 1 -7.7281089855265e+00 -1.0556003095409e+01 -6.5226699114356e+00 -3.2181090076775e+00 1.0712710738192e-01
1382 1 -6.9166348263259e+00 -1.2276731637500e+01 -8.7525126242362e+00 -3.2635741841906e+00 8.4432709332271e-02
1368 1 -6.5097254565446e+00 -1.3195323395511e+01 -5.8593454621652e+00 -3.2834979614172e+00 7.0853100503463e-02
1531 1 -5.1279477484704e+00 -1.1038921531711e+01 -5.0147031750218e+00 -3.2858518990149e+00 9.1941942920507e-02
1386 1 -4.0701321850545e+00 -1.2884009870646e+01 -7.4722234588396e+00 -3.2543266722975e+00 1.3038590455225e-01
1509 1 -1.5888655228789e+01 -1.0079499553977e+01 -2.3390877613750e+00 -3.2858820134648e+00 1.2693041445731e-01
1385 1 -3.5516420130347e+00 -1.4197135863490e+01 -9.7481275599220e+00 -3.2997566427054e+00 6.8737560527745e-03
1365 1 -2.8935966134512e+00 -1.0377770121518e+01 -6.7115836702054e+00 -3.3351994462052e+00 5.6316338324268e-03
1395 1 -1.1085870086229e+00 -1.4325663768167e+01 -8.0979992873241e+00 -3.1574176133118e+00 1.1020716533431e-01
1366 1 -1.7955132300749e+00 -1.2132408033455e+01 -8.6541017497866e+00 -3.1187428581820e+00 3.8863147414310e-02
1367 1 -1.8819081066553e+00 -1.3031064650744e+01 -5.7178818999696e+00 -3.2534601795828e+00 5.9564760660226e-02
1392 1 -1.9998858788414e-01 -1.0789842607275e+01 -5.4750331276172e+00 -3.3127279729384e+00 1.0253178027361e-01
1396 1 1.6820262102470e+00 -1.3756608871379e+01 -9.9214206896606e+00 -3.3126036428452e+00 3.8585446240825e-02
1404 1 4.0062078567549e+00 -1.4172516199636e+01 -8.5545157016860e+00 -3.3064109352471e+00 1.2897258499131e-01
1397 1 5.6533116020544e-01 -1.2359992701414e+01 -7.6954397966214e+00 -3.2028772790512e+00 4.4976580173319e-02
1409 1 3.0306385560112e+00 -1.1408979608098e+01 -8.9209248057505e+00 -3.3070945330238e+00 4.6635694720730e-02
1399 1 3.1625864386746e+00 -1.2579272805781e+01 -6.1003856201730e+00 -3.3003553030542e+00 2.9459665528591e-02
1391 1 4.5732015264128e+00 -1.0057281936116e+01 -5.4764464022949e+00 -3.2760827913394e+00 7.8944889481378e-03
2096 1 9.3042015434981e+00 -1.4720722607556e+01 -5.9751604208919e+00 -3.2416817252176e+00 2.6406525974542e-02