ITEM: TIMESTEP
100000
ITEM: NUMBER OF ATOMS
3997
ITEM: BOX BOUNDS mm mm mm
-2.8059222857791799e+01 2.8059222857791799e+01
-2.9761300136353700e+01 2.9761300136353700e+01
-2.8637824408595101e+01 2.8637824408595101e+01
ITEM: ATOMS id type x y z c_pe c_ke
31 1 -1.1618462955850e+00 -3.7880679479887e+00 -2.4184877821324e+01 -2.6373012700992e+00 6.2256609424694e-02
42 1 1.3913578168795e+00 -5.5353438204535e+00 -2.4833704562175e+01 -2.3957705842299e+00 1.6719413583587e-02
23 1 -1.5796585644528e-01 -1.1912876682705e+01 -2.1103349796146e+01 -2.8608958190152e+00 1.4308735831043e-01
257 1 4.8421624105984e+00 -1.1640401960929e+01 -2.0191019501718e+01 -2.8847408612661e+00 1.2803320441489e-01
275 1 -9.7593278111661e+00 -7.8194046885359e+00 -2.0123586552265e+01 -3.0310227604242e+00 8.6854556647626e-02
21 1 -7.6237622697850e+00 -6.9062598099582e+00 -2.1310865869686e+01 -2.8611349713231e+00 5.7459199815352e-02
22 1 -6.8507717564303e+00 -9.5084520915258e+00 -2.0822876823037e+01 -2.6737989793009e+00 2.5343941130911e-02
280 1 -5.2281652700516e+00 -7.4100476816312e+00 -2.0535021426115e+01 -3.1035607763428e+00 1.4361328650214e-01
269 1 -1.9449542741716e+00 -9.7521783709928e+00 -2.1456659390740e+01 -3.0040716890999e+00 1.0163677368173e-01
20 1 -2.8793966734946e+00 -7.1591574156751e+00 -2.1944041814424e+01 -2.9483272593711e+00 2.5876940780857e-02
271 1 -4.2481083610664e+00 -9.9984030808655e+00 -2.0022796960492e+01 -3.0898912789890e+00 1.1474953716191e-01
270 1 2.0993635468847e+00 -1.1024321551639e+01 -2.1929932573474e+01 -2.5896144415681e+00 8.8652990757445e-02
32 1 -4.9205105457211e-01 -7.3162821826294e+00 -2.0803451996360e+01 -3.3213190575644e+00 8.0465654263176e-02
29 1 7.2822675256161e-01 -8.7456199231457e+00 -2.2900052462133e+01 -2.8174288291394e+00 1.1772483199528e-01
298 1 3.3741752751459e+00 -8.7041965799836e+00 -2.2614445676083e+01 -2.8208305848026e+00 4.5584039113123e-02
292 1 6.9430041417625e-01 -9.5034239490021e+00 -2.0158341421391e+01 -3.3525216742445e+00 3.3125329616566e-02
304 1 2.3707012466114e+00 -7.1950662698254e+00 -1.9676845291521e+01 -3.2006108385363e+00 2.4732240900961e-01
290 1 5.7850262061871e+00 -9.0734612517687e+00 -2.1340622753657e+01 -2.9469171002076e+00 1.6430784775158e-02
34 1 8.3685253186595e+00 -9.0001217574250e+00 -2.1137819719669e+01 -2.4328799172048e+00 4.3179858985931e-02
315 1 7.3497804927322e+00 -7.2091839202826e+00 -1.9549678529761e+01 -3.3398125453811e+00 2.3760386503023e-01
357 1 -1.3183989252880e+01 -2.9374711877940e+00 -2.0839140192848e+01 -2.2249537139833e+00 6.8290471084843e-02
49 1 -1.1055651158871e+01 -5.4731392118268e+00 -2.0552823738365e+01 -2.8679738134018e+00 1.2495505424194e-01
62 1 -9.8181216726402e+00 -3.0697513047456e+00 -2.0274592692329e+01 -3.2431458677154e+00 3.7663165151789e-02
281 1 -6.2661777364087e+00 -4.0026748749582e+00 -2.3582052720276e+01 -2.3327618798674e+00 5.6083085635648e-02
64 1 -8.7966549533598e+00 -4.5816871472355e+00 -2.2320051828736e+01 -2.6518110685221e+00 5.4080599885947e-02
66 1 -6.1524559763985e+00 -4.7051691585570e+00 -2.1144129947836e+01 -3.1378915497131e+00 6.2226696938434e-02
65 1 -7.2474127220612e+00 -2.3329468097302e+00 -2.1720020178024e+01 -3.1376757290931e+00 1.3825537140185e-01
53 1 -4.9156693343262e+00 -2.7207229925124e+00 -2.0721192776079e+01 -3.1420568137884e+00 2.2646215319054e-01
28 1 -7.8737593964748e-01 -6.2748193504111e+00 -2.3227479241027e+01 -2.9532664286603e+00 8.3534883370124e-02
19 1 -3.7163901448576e+00 -4.4291781056436e+00 -2.2955757367214e+01 -3.1606255584552e+00 1.4281750896129e-02
27 1 -1.4998261697349e+00 -4.6765189153977e+00 -2.1249697429654e+01 -3.3505985648191e+00 6.8086604888165e-02
87 1 -2.4247265439052e+00 -2.1255163405338e+00 -2.1841561449511e+01 -3.4224525425156e+00 2.2421848865989e-02
296 1 -3.7837195132977e+00 -5.0803658098026e+00 -2.0115164394222e+01 -3.3136098168098e+00 3.4267579334617e-02
30 1 1.8455467128922e+00 -6.4252332985439e+00 -2.2410640130930e+01 -3.2805840577702e+00 1.4433078550748e-01
90 1 4.2041146038251e-02 -2.5146109733511e+00 -2.0465036946689e+01 -3.2865768995742e+00 7.6836844664468e-02
25 1 2.9299300933454e+00 -3.2535226844647e+00 -2.3962783506562e+01 -2.7384494620566e+00 1.0104432068050e-01
26 1 3.0498915711564e+00 -4.4578039669184e+00 -2.1463143538202e+01 -3.2398614333999e+00 1.5937526462555e-01
33 1 6.0803311061708e-01 -3.7742437893439e+00 -2.2708911048973e+01 -3.1997994921466e+00 1.1390919222108e-01
303 1 8.7106849758437e-01 -5.1624318678651e+00 -2.0157318029866e+01 -3.2668788113795e+00 5.2415596034888e-02
38 1 4.1658373416908e+00 -6.2207601400681e+00 -2.3668337372605e+01 -2.6361088343478e+00 6.7079314331562e-02
289 1 4.3565767275393e+00 -6.7293973667492e+00 -2.1182008560061e+01 -3.2164550558867e+00 3.9086887018481e-02
40 1 6.7928158212801e+00 -6.3116631119510e+00 -2.2186608811454e+01 -2.9521267823927e+00 4.9036090151275e-02
41 1 8.3473395255466e+00 -3.9202718163081e+00 -2.1734052522956e+01 -2.9484526968987e+00 1.0213651263549e-01
44 1 6.0652120075255e+00 -4.5199592194280e+00 -2.0270226925953e+01 -3.3319149006522e+00 6.2733894118796e-02
39 1 5.0397016191064e+00 -3.9801353082532e+00 -2.2763534392081e+01 -2.9048027771464e+00 9.7003513602907e-03
313 1 1.1887043804353e+01 -6.5979779809005e+00 -2.0234309735183e+01 -2.7692244881223e+00 5.5314097996954e-02
46 1 9.4648522785677e+00 -6.2059275185439e+00 -2.0954199544092e+01 -2.9367158488740e+00 7.5640382811008e-02
312 1 1.1171200119950e+01 -4.0272528672209e+00 -2.0511222548565e+01 -2.9167264231742e+00 5.2375148996812e-02
61 1 -1.1134061966730e+01 -8.8471417023309e-01 -2.0838042993223e+01 -3.0039143172173e+00 6.3514116686690e-03
67 1 -1.1823857868108e+01 1.9818798325046e+00 -2.1313182774740e+01 -2.6765883588697e+00 1.6364371928686e-02
71 1 -9.5855422841297e+00 1.5774614782510e+00 -1.9798096393432e+01 -3.2898806313029e+00 5.4094160988787e-02
58 1 -6.4370821812150e+00 4.1125280885545e-01 -2.3440038840617e+01 -2.6112943225895e+00 3.7279106685628e-01
80 1 -6.0421192819562e+00 -3.2437282764915e-01 -2.1019552312356e+01 -3.2362961091284e+00 6.7306277618903e-02
70 1 -8.5765662172865e+00 -4.2656020989223e-02 -2.1866629827082e+01 -2.9649860849911e+00 1.4067687752198e-01
59 1 -4.8450126253769e+00 -1.8462414622665e+00 -2.2983723583307e+01 -2.9490636829549e+00 8.0803044893943e-02
55 1 -7.0051119398867e+00 2.4558412397639e+00 -2.1355772667443e+01 -3.2586834756215e+00 3.8654708608421e-02
86 1 -2.9264800807400e+00 -1.4786099318744e+00 -2.4348054370093e+01 -2.4947157245250e+00 8.3799830675083e-03
5 1 -1.5141625360481e+00 1.1780359522122e+00 -2.3789315978253e+01 -2.6235320478003e+00 9.6306476398096e-02
89 1 -1.0534240467035e+00 2.4594331743651e-01 -2.1323338737913e+01 -3.3178081348232e+00 1.3010192611477e-01
81 1 -3.7878673002249e+00 5.3179633055614e-01 -2.2550270293105e+01 -3.2966261865398e+00 9.0936253290120e-03
82 1 -4.7160854900728e+00 1.9062678538146e+00 -2.0286722563639e+01 -3.3020578261189e+00 5.4192418409363e-02
83 1 -3.3433310223806e+00 -5.0614392940901e-01 -1.9906646836049e+01 -3.3663972125762e+00 7.5845105192763e-03
24 1 2.2036563394383e+00 -1.6924251470104e+00 -2.1838128297892e+01 -3.2481412310826e+00 4.4661782418200e-02
88 1 -3.7316405968155e-01 -1.3461382553496e+00 -2.3358213994003e+01 -3.0585568042522e+00 6.9218343119780e-02
110 1 3.4669604858650e+00 1.6832661139789e+00 -2.3806021241748e+01 -2.4978426643832e+00 8.6991731062562e-02
111 1 3.9042653279642e+00 5.6386425591330e-01 -2.1209183861646e+01 -3.3476362894952e+00 6.5622541471354e-02
79 1 1.2463607081366e+00 7.1008491078143e-01 -2.2349910776898e+01 -3.2121275790869e+00 4.9054308818235e-02
104 1 2.2913815911622e-01 2.3783981592971e+00 -2.0246690091561e+01 -3.3745844768662e+00 4.6177216889673e-02
73 1 1.4835308901648e+00 -2.8367494183976e-01 -1.9809002453536e+01 -3.2661112217879e+00 2.7861087523451e-02
37 1 4.7364910160996e+00 -2.0843060237374e+00 -2.0772060475667e+01 -3.3874923139414e+00 1.2504955950667e-01
43 1 4.4752078439787e+00 -1.0418600684711e+00 -2.3290702713851e+01 -2.8687953953298e+00 4.9216175039726e-02
45 1 7.0916678585896e+00 -1.4017423095178e+00 -2.2168623502257e+01 -2.9884461750083e+00 1.5593640898037e-01
114 1 6.4385631743674e+00 3.7585615891461e-01 -2.0051970814366e+01 -3.3903879613284e+00 3.6066002854466e-02
112 1 6.1984718410913e+00 1.3735722284587e+00 -2.2685620806180e+01 -3.0306833798767e+00 1.6744818301869e-02
35 1 8.9165222047846e+00 1.2091788989491e+00 -2.1825005542497e+01 -2.9009224476442e+00 2.8221028130089e-02
325 1 7.2549685307984e+00 -2.3808824554377e+00 -1.9648456081370e+01 -3.2640531192710e+00 2.2624703892421e-01
36 1 1.0077785703056e+01 -1.6286492108871e+00 -2.1238776172913e+01 -2.8545643093343e+00 1.5574147961561e-01
47 1 1.1348121564207e+01 6.2070599831576e-01 -2.0399529051999e+01 -2.9818682797062e+00 6.5438460299199e-02
48 1 1.2694922892701e+01 -1.7332329195841e+00 -1.9853741537861e+01 -2.9534653950843e+00 7.4599959740294e-02
159 1 -1.0303585742039e+01 4.1508671476562e+00 -2.0534961677127e+01 -3.1431963107588e+00 1.3455759103815e-01
10 1 -1.1379414576119e+01 6.6718036565553e+00 -2.1079535399064e+01 -2.4079613839362e+00 2.7545141777602e-04
69 1 -9.3739352177493e+00 2.5334642285394e+00 -2.2278997447492e+01 -2.5766173756952e+00 8.4150606100023e-03
2 1 -7.9706393099461e+00 5.0212743796956e+00 -2.1870195270138e+01 -2.7080183421256e+00 6.1987554046513e-02
91 1 -5.6123879300639e+00 4.8794486008223e+00 -2.0746602279181e+01 -3.2549467086946e+00 7.5231843658209e-02
152 1 -8.9502066847470e+00 6.4916692553843e+00 -1.9916191668369e+01 -3.2417015041517e+00 5.3639306611338e-02
94 1 -2.4515901111355e+00 2.7031692280141e+00 -2.1367176149146e+01 -3.2676795111528e+00 6.0124951113714e-02
4 1 -5.1089241163523e+00 2.9938207133478e+00 -2.2988901638071e+01 -2.6828837281515e+00 1.5781988783731e-01
12 1 -3.3185588903399e+00 5.1378354833432e+00 -2.2307461815180e+01 -2.7749075903810e+00 9.1501770113532e-03
75 1 -6.5773803756541e-01 4.9567782096739e+00 -2.1105566430093e+01 -3.2274446099882e+00 5.1555935427145e-03
180 1 -3.9187898179561e+00 6.9436294880499e+00 -2.0370775971523e+01 -3.1073883487898e+00 7.0698703596246e-02
95 1 -3.1191083974555e+00 4.4956923925030e+00 -1.9681491837526e+01 -3.2439745312410e+00 1.5288642413811e-01
78 1 1.3870396410695e-01 3.2355035685007e+00 -2.2862190560290e+01 -2.7363077985924e+00 7.2396134380443e-02
105 1 2.3818973944838e+00 3.2281785792376e+00 -2.2071430299674e+01 -3.0863299180051e+00 3.7092879120813e-02
7 1 1.5524998944294e+00 5.7721046440475e+00 -2.2479696221338e+01 -2.9026519540945e+00 1.0622326413434e-02
118 1 4.1436082979642e+00 5.4033153344972e+00 -2.1317095923460e+01 -3.2462060013686e+00 2.2812442647413e-02
106 1 1.9228751085761e+00 4.6835460553847e+00 -1.9699259193050e+01 -3.3670238976502e+00 1.4749863762536e-02
8 1 4.7089655709130e+00 3.9926101341552e+00 -2.3214264495448e+01 -2.6139735043992e+00 5.7174597959379e-02
113 1 5.1708179831867e+00 2.8431519365516e+00 -2.0734284746024e+01 -3.3926929654807e+00 1.0521010969667e-01
103 1 7.5841162595600e+00 3.6960579593889e+00 -2.2265103485412e+01 -2.9817621598781e+00 8.7413386015155e-02
102 1 6.5021312773930e+00 5.8980017020988e+00 -2.2838621848288e+01 -2.5409092460871e+00 1.1947558295899e-01
125 1 6.9012277443919e+00 5.2556447864777e+00 -2.0078307006393e+01 -3.3813317973405e+00 2.1325005524362e-02
126 1 9.0217818798175e+00 5.8556011496230e+00 -2.1489832067206e+01 -2.8282855717650e+00 1.3128679299575e-02
131 1 9.9986846693737e+00 3.4836120315233e+00 -2.0937623019044e+01 -2.9028721994717e+00 1.6024427304454e-02
151 1 -9.8692305856314e+00 9.1715517983400e+00 -1.9902720662410e+01 -2.7847450387310e+00 1.2008095758985e-01
85 1 -6.2661902386305e+00 7.6428173864446e+00 -2.1050265862348e+01 -2.8054430910645e+00 1.5219799846572e-01
14 1 -6.3191848181931e+00 1.0493594451527e+01 -2.0760301154398e+01 -2.5972622983485e+00 1.6766791292203e-02
13 1 -8.4693647942337e+00 1.1554918446442e+01 -1.9216791252002e+01 -2.8937777717089e+00 6.9109349698795e-02
93 1 -1.5277084226144e+00 7.2631866200527e+00 -2.1540621963919e+01 -3.0771155157692e+00 1.3102340644156e-01
178 1 -3.8175439386535e+00 9.4894018653871e+00 -2.1274653795756e+01 -2.7680676845459e+00 1.6081462935658e-01
11 1 -1.5689705833998e+00 1.0060507538944e+01 -2.2954724532380e+01 -2.3645035566658e+00 7.4261623078915e-02
109 1 -8.8797623090067e-02 9.8990590139171e+00 -2.0729713991556e+01 -3.4230363727414e+00 2.6873319863693e-02
115 1 8.9938507470172e-01 7.3212233890146e+00 -2.0448641045211e+01 -3.3003152121016e+00 6.4267007064489e-02
117 1 3.2988625033252e+00 8.1385124716574e+00 -2.1812348000046e+01 -3.0475000230901e+00 4.5819446694172e-02
3 1 7.4577610787343e-01 8.4103794732998e+00 -2.2666308678290e+01 -2.6465781962059e+00 7.3036166338656e-02
1 1 2.0241648173993e+00 1.0740113102720e+01 -2.2207974243796e+01 -2.7909006204529e+00 3.1698994229185e-02
204 1 2.3454333164702e+00 9.7262885440178e+00 -1.9443875915695e+01 -3.3129149401307e+00 4.6525964403964e-02
99 1 5.7679317337161e+00 7.5618646626609e+00 -2.0446033965463e+01 -3.2193921123596e+00 8.1678612934757e-02
9 1 8.1980614078769e+00 7.9736809389993e+00 -2.1605364628902e+01 -2.4318221750407e+00 1.2356204890815e-01
130 1 4.9550711832114e+00 1.0233889678320e+01 -2.0705421849966e+01 -3.0021053030401e+00 1.5042746125709e-01
136 1 1.0612154828025e+01 8.0712053454122e+00 -2.0411953573342e+01 -2.7433706653159e+00 1.2430070350003e-01
15 1 -2.2568331169119e+00 1.1723992135875e+01 -2.0872260328296e+01 -3.0687179789299e+00 3.9580517123560e-02
171 1 -4.7719407866845e+00 1.2503802744803e+01 -2.0401259857074e+01 -2.6419881798951e+00 1.0122304575951e-02
16 1 3.9365786387656e+00 1.2563775657249e+01 -2.1305191401395e+01 -2.5366842661971e+00 5.5656515197084e-02
6 1 3.3977030476405e-02 1.2303289965089e+01 -2.2400070567562e+01 -2.4044374169000e+00 2.0863528230452e-02
18 1 -1.6322265694078e-01 1.4189717917565e+01 -2.0303988490203e+01 -2.7363574428240e+00 3.3391039567056e-02
202 1 1.6217578641568e+00 1.2050119361697e+01 -1.9878629114131e+01 -3.2683738793128e+00 2.1303896850106e-02
221 1 6.3875128758906e+00 1.2647155322052e+01 -2.0110233100457e+01 -2.6845401909511e+00 1.3198448535390e-02
733 1 -7.0615993350723e+00 -1.7047297014791e+01 -1.6222987386804e+01 -2.6447459875111e+00 1.3213293085213e-01
756 1 -4.4488189778253e+00 -1.6109358817902e+01 -1.7754270809469e+01 -2.5931258334564e+00 1.5568716033193e-01
758 1 -1.7808892309064e+00 -1.6476870894456e+01 -1.6324383159159e+01 -3.1969636406036e+00 8.5380581600931e-02
704 1 -7.0084052256678e-01 -1.9091401431966e+01 -1.5813844777863e+01 -2.4222504170746e+00 1.7853508151100e-02
709 1 7.8071312300656e-01 -1.6145233789754e+01 -1.7875533927023e+01 -2.7814141355487e+00 8.0904900692548e-02
710 1 3.3138592677787e+00 -1.6363798744016e+01 -1.6994632892792e+01 -2.8618966915041e+00 3.6025120009076e-02
717 1 8.9292212695677e+00 -1.6079913439923e+01 -1.5964961704905e+01 -2.9099211881157e+00 1.6881304020291e-02
739 1 -1.1129815642638e+01 -1.2462434721713e+01 -1.5851029891594e+01 -3.0773796660189e+00 3.2195306088201e-02
262 1 -8.7971086856609e+00 -1.1736325838898e+01 -1.7402406006572e+01 -3.0956304206110e+00 1.8388440556687e-02
732 1 -7.7122850325395e+00 -1.4530246565251e+01 -1.7173644740121e+01 -2.9065985491072e+00 3.4906246250886e-02
273 1 -5.2373593136440e+00 -1.3678748011174e+01 -1.8304155423371e+01 -2.9011389483440e+00 8.8816031268405e-02
279 1 -6.3702172202387e+00 -1.2296317966634e+01 -1.6242015496523e+01 -3.3342921622897e+00 9.9513324897251e-03
751 1 -5.2977658653062e+00 -1.4675785812231e+01 -1.5549838303120e+01 -3.3321169319814e+00 3.1269868076117e-03
277 1 -1.7332003044222e+00 -1.5496424808381e+01 -1.9077788384870e+01 -2.5793952193122e+00 1.4703306089647e-01
276 1 -2.8694504142161e+00 -1.2543104107702e+01 -2.0110829101814e+01 -2.8272902083589e+00 1.3676803192397e-01
264 1 -6.0637331524168e-01 -1.2800875681781e+01 -1.8507839642096e+01 -3.2398428721058e+00 3.0839315092557e-02
283 1 -2.7331528311046e+00 -1.3969007484238e+01 -1.7264280196740e+01 -3.3375236119380e+00 1.4697025396344e-01
748 1 -1.2400422906051e+00 -1.1632236497809e+01 -1.6358342699619e+01 -3.2247984150065e+00 2.1274747766376e-01
749 1 -1.1569921353368e-01 -1.4086926385419e+01 -1.6027405507391e+01 -3.3235514704708e+00 5.3244191218645e-03
258 1 1.0084862847182e+00 -1.4315076613103e+01 -2.0201570287767e+01 -2.5875564533341e+00 6.0182317398773e-02
300 1 4.1621436216700e+00 -1.4102639338106e+01 -1.8935215845781e+01 -2.9426284227133e+00 5.8872214751847e-02
780 1 1.8187420897262e+00 -1.3787516019893e+01 -1.7585863832760e+01 -3.2897078989457e+00 1.0480489226405e-01
297 1 2.0008142176486e+00 -1.1932144652783e+01 -1.9595804717547e+01 -3.1593155134650e+00 1.1838578521416e-02
306 1 3.7488562257529e+00 -1.1743992362431e+01 -1.7383717906640e+01 -3.2902968802394e+00 1.9132733359323e-01
782 1 4.5413146762684e+00 -1.3921990064851e+01 -1.6044636716173e+01 -3.2903211260831e+00 1.0653155181522e-01
712 1 6.2514523268723e+00 -1.5497943756538e+01 -1.7671063547180e+01 -2.7215156355527e+00 3.4948222623069e-02
706 1 8.4648877869692e+00 -1.3968142156357e+01 -1.7937913259359e+01 -3.0032629732830e+00 1.6849114326814e-01
718 1 6.2985307753870e+00 -1.2611171460975e+01 -1.7470100896221e+01 -3.1588414246209e+00 1.0534472094924e-01
259 1 7.8196622442665e+00 -1.2150643122376e+01 -1.9583455559761e+01 -2.6252784077102e+00 1.9666117981587e-01
722 1 1.1162549409127e+01 -1.5089991473456e+01 -1.7353048398232e+01 -2.1852564026173e+00 8.7065831858581e-02
721 1 1.0401848419714e+01 -1.2007421436441e+01 -1.7882327475621e+01 -3.1200561946002e+00 2.9743219570038e-02
714 1 1.2589826436306e+01 -1.3149582485185e+01 -1.5787922665608e+01 -2.9357146040713e+00 7.7275861145473e-02
719 1 1.0011639195660e+01 -1.3492472298785e+01 -1.5534356661430e+01 -3.3510391778057e+00 2.9906623516669e-02
362 1 -1.4564006817729e+01 -9.3125570355521e+00 -1.7412223974827e+01 -2.3552003605939e+00 1.0037272279823e-01
360 1 -1.5917046917624e+01 -7.9461272088819e+00 -1.5342578666165e+01 -3.0855927953977e+00 6.1427648507085e-02
263 1 -1.1409802556554e+01 -1.0937124553421e+01 -1.8155627814050e+01 -2.5532226936557e+00 6.3065531664515e-03
364 1 -1.3764168711937e+01 -6.8931794601866e+00 -1.6922285025117e+01 -3.2519598598216e+00 6.6664715748293e-02
363 1 -1.2262070543271e+01 -8.2869869992694e+00 -1.9088231496143e+01 -2.8818319561095e+00 2.6523694384740e-02
260 1 -9.8456674627117e+00 -8.8275607461962e+00 -1.7587109169396e+01 -3.4333798981854e+00 2.5384218293369e-01
365 1 -1.2093413140994e+01 -9.6238142260398e+00 -1.6201502480266e+01 -3.1919016517487e+00 7.3251113840639e-02
352 1 -1.0930579100774e+01 -7.1890646867353e+00 -1.5637832669565e+01 -3.3133310703478e+00 1.1750111981913e-02
261 1 -8.9913952076000e+00 -1.0699894248621e+01 -1.9558535423645e+01 -2.6278118153630e+00 7.2311522384087e-02
272 1 -6.4702572890968e+00 -1.1207356678056e+01 -1.8694399120329e+01 -3.1593741544298e+00 5.9941024015892e-02
278 1 -7.5906697775172e+00 -8.0906471054177e+00 -1.8645105382379e+01 -3.1871462451392e+00 4.1285919282260e-02
282 1 -5.1547685434226e+00 -8.8424866203362e+00 -1.7984342630413e+01 -3.2982707240287e+00 1.1035908183861e-01
268 1 -7.2323005887400e+00 -9.6545323313827e+00 -1.6598002834969e+01 -3.2968418147084e+00 1.3113969684146e-01
389 1 -6.0167664640383e+00 -7.1267988063627e+00 -1.5741790446704e+01 -3.3061913554064e+00 5.7101427405726e-02
274 1 -3.8102117397989e+00 -1.1614554098865e+01 -1.7783485864643e+01 -3.3272533100946e+00 1.6228026757635e-01
291 1 -1.4793816006134e+00 -1.0610311728554e+01 -1.8960215602164e+01 -3.2863724342018e+00 1.0909876691218e-01
266 1 -2.8355798894305e+00 -7.9313958889981e+00 -1.9369458271655e+01 -3.2992830246059e+00 2.4287985644163e-02
267 1 -2.6857951748171e+00 -9.0193071575465e+00 -1.6898267248104e+01 -3.3212629340490e+00 3.5918366466876e-02
288 1 -1.1013329153812e+00 -6.6972875681515e+00 -1.5908403912560e+01 -3.2807059410659e+00 2.5680208819762e-02
293 1 -1.9813076604074e-01 -8.2252584384818e+00 -1.8094461402132e+01 -3.3004373567564e+00 5.7787705683029e-02
302 1 1.1009022760186e-01 -9.0241359700370e+00 -1.5543847347819e+01 -3.2399962456107e+00 1.1752481454507e-01
294 1 8.8321686905123e-01 -1.0792461685854e+01 -1.7615560039412e+01 -3.1843897409796e+00 3.0882243359533e-02
299 1 3.4016163991953e+00 -9.6482993916289e+00 -1.9630688566298e+01 -3.2738488635166e+00 2.5971260667329e-02
295 1 2.4188075746826e+00 -8.6817860245948e+00 -1.7123201815416e+01 -3.2486718966236e+00 3.5078959548727e-02
787 1 1.4422120076369e+00 -6.9128727383203e+00 -1.4575256355067e+01 -3.3103322640080e+00 1.9606606582245e-01
804 1 8.2413670121549e+00 -1.1354653178312e+01 -1.6621697994926e+01 -3.3862796263769e+00 2.5341550160250e-01
772 1 5.2226366054464e+00 -9.0810810654683e+00 -1.5845292164150e+01 -3.2771552179972e+00 1.7054753646627e-02
314 1 4.9457562644190e+00 -7.5783558661186e+00 -1.8512258075409e+01 -3.1838769080777e+00 7.5908837884140e-02
284 1 6.2250694653881e+00 -9.9689553807834e+00 -1.8423654999282e+01 -3.3525901525935e+00 3.1700402775559e-02
317 1 7.5789703652023e+00 -8.2968726053981e+00 -1.6952224003585e+01 -3.2700376740571e+00 1.1291210751237e-02
320 1 8.9778194856624e+00 -9.7951925718178e+00 -1.8868124925167e+01 -3.1131671570380e+00 3.7835717026859e-02
322 1 1.1834831023543e+01 -9.2358243710462e+00 -1.9133010860878e+01 -2.7484208630114e+00 6.7989369079985e-02
321 1 9.9095240661266e+00 -7.4887165242643e+00 -1.8724041398444e+01 -3.2141959164754e+00 8.5026584774361e-02
724 1 1.3007911980377e+01 -1.0581735902949e+01 -1.6770271329243e+01 -2.9628154024022e+00 1.0816187070575e-02
307 1 1.2005637091044e+01 -7.4268284558209e+00 -1.7161509926111e+01 -3.2127513047781e+00 7.6958446921161e-02
328 1 9.9424764081525e+00 -9.1544770023976e+00 -1.6343419774230e+01 -3.2386413655145e+00 1.4977552545107e-02
806 1 1.1030059720270e+01 -1.1115337012583e+01 -1.5220974617584e+01 -3.1492390127410e+00 5.4822409879227e-02
828 1 1.4698957370031e+01 -8.1450538092759e+00 -1.6304788039988e+01 -3.1491001414231e+00 8.8317009983538e-02
369 1 -1.4376357035136e+01 -4.3624590105775e+00 -1.7347803888358e+01 -3.0296954884325e+00 2.6606111894529e-02
359 1 -1.6657030829371e+01 -5.2698846682418e+00 -1.5808432723399e+01 -2.9761936148031e+00 8.2850958345301e-02
366 1 -1.7816578991958e+01 -2.8466926330375e+00 -1.6103921427133e+01 -2.8380419129213e+00 5.8659377544288e-02
52 1 -1.3517641913464e+01 -5.8254467301458e+00 -1.9403079185765e+01 -2.5696778695176e+00 6.2790556458839e-02
358 1 -1.1168691740976e+01 -6.1876754546822e+00 -1.8202004767259e+01 -3.2993503003780e+00 3.6076803759964e-02
60 1 -1.2283169177853e+01 -3.7526922366845e+00 -1.8626324442786e+01 -3.1557307463131e+00 9.6105114274367e-02
379 1 -1.2030063695405e+01 -4.7459581760205e+00 -1.6109311012007e+01 -3.3130459441448e+00 1.4228169747386e-01
380 1 -9.4601952415992e+00 -4.1521318409410e+00 -1.7546820821663e+01 -3.2930607044375e+00 8.4641807215887e-02
381 1 -1.0468545630502e+01 -2.5953997122346e+00 -1.5300902580757e+01 -3.3166176178606e+00 8.6535378590790e-03
354 1 -1.3165058423407e+01 -2.0263493387611e+00 -1.6715680516001e+01 -3.3088662635764e+00 3.2541052609104e-02
386 1 -8.5437460385045e+00 -6.5757749964699e+00 -1.6946136874883e+01 -3.1553581146077e+00 1.3969685838037e-01
385 1 -8.7133656382152e+00 -5.4093466340377e+00 -1.9640009092012e+01 -3.1979796990155e+00 1.5951554743864e-02
387 1 -6.1059601278288e+00 -6.1309838284008e+00 -1.8665256856412e+01 -3.2819595841163e+00 4.8925815996763e-02
72 1 -7.2085627084595e+00 -3.4594440318262e+00 -1.9059931723483e+01 -3.3239040080968e+00 1.1069731192494e-01
388 1 -6.9882316616567e+00 -4.2829377629365e+00 -1.6561888172385e+01 -3.2621826725459e+00 7.1647836665043e-02
403 1 -5.4031019296968e+00 -2.2312067463311e+00 -1.5693165215188e+01 -3.2826983219286e+00 9.1799535039224e-02
265 1 -3.5741145793865e+00 -6.4237644272484e+00 -1.7147448317704e+01 -3.2686388631523e+00 1.9654131367578e-02
378 1 -4.5510117331475e+00 -3.7224100453913e+00 -1.7881861291561e+01 -3.2469553475386e+00 1.6508958642386e-01
301 1 -1.4959333778233e+00 -5.8163601967064e+00 -1.8739064327473e+01 -3.2920434535125e+00 2.8528176236939e-02
409 1 -2.3497840159743e+00 -2.8894592940286e+00 -1.9106801103757e+01 -3.1992784539371e+00 6.9448069222147e-02
410 1 -2.1944260902864e+00 -4.3134720139548e+00 -1.6542695622761e+01 -3.2576415390948e+00 6.1121569105695e-02
287 1 3.8998008774617e+00 -6.3577760213069e+00 -1.6282623769436e+01 -3.3192524805195e+00 9.9303306032450e-02
305 1 1.2667041878640e+00 -5.9719601220658e+00 -1.7511941975666e+01 -3.3669493798437e+00 7.6013653712956e-02
411 1 -5.7690458254629e-03 -3.4740029006756e+00 -1.7918889641991e+01 -3.3314714148798e+00 2.7911193631471e-01
286 1 3.6900368041443e+00 -5.1763699267210e+00 -1.8713047158646e+01 -3.2586679810250e+00 2.6746476706451e-02
285 1 2.7955304053012e+00 -3.7694315133237e+00 -1.6682765601982e+01 -3.3036054301632e+00 4.7336704333686e-02
319 1 2.4358616985598e+00 -2.8553560705881e+00 -1.9386430344563e+01 -3.3348792595492e+00 2.6952868743321e-02
413 1 5.2178303438812e-01 -4.2410827265578e+00 -1.5213712036558e+01 -3.3470301165099e+00 6.7853899393138e-02
318 1 9.2350898124283e+00 -5.9033796384905e+00 -1.6510614231551e+01 -3.2805352492044e+00 7.7380772850111e-02
316 1 6.2566411475781e+00 -5.6748779682976e+00 -1.7530387242106e+01 -3.2673577234392e+00 8.9934586429333e-02
326 1 8.6222452004890e+00 -4.7909427156135e+00 -1.8972021412078e+01 -3.3325499951050e+00 4.9588803851083e-02
323 1 5.2662590760743e+00 -2.9754133317567e+00 -1.8072072953243e+01 -3.3153393402985e+00 3.0555330446780e-02
327 1 7.7754714714354e+00 -3.1542135841620e+00 -1.6792819081039e+01 -3.3087693875925e+00 5.1173601234143e-02
311 1 5.3472581046484e+00 -3.9824031665274e+00 -1.5369943945830e+01 -3.2854641344492e+00 9.0759388183099e-02
333 1 1.1235766395533e+01 -5.0886211666024e+00 -1.8152340416859e+01 -3.2940009716993e+00 6.2430521687462e-02
335 1 1.2742187539854e+01 -2.8315822305065e+00 -1.7193496362160e+01 -3.3310143274776e+00 2.2965847823803e-02
309 1 9.9947866291990e+00 -2.6073274129738e+00 -1.8853386032003e+01 -3.2214799725385e+00 1.7232827199704e-02
310 1 1.0656059013236e+01 -3.5592277834992e+00 -1.5612157418587e+01 -3.3099447639629e+00 2.6111386976619e-02
339 1 1.4052127063206e+01 -7.1791344947503e+00 -1.8573495762215e+01 -2.6844037891738e+00 3.5581277272834e-01
334 1 1.3445836666519e+01 -4.6362420159473e+00 -1.9329935718675e+01 -2.9566450056012e+00 4.5448753936953e-02
336 1 1.3498763053324e+01 -5.3792133460258e+00 -1.6579635615602e+01 -3.3090718781011e+00 5.4645042001053e-02
340 1 1.5786153160109e+01 -4.8075990067232e+00 -1.7877689746132e+01 -2.7884801284836e+00 6.3955009947353e-02
337 1 1.5277784050913e+01 -2.8920902773814e+00 -1.5736896468669e+01 -3.3582476659978e+00 1.8805848338988e-02
50 1 -1.4614421686338e+01 1.9219713579105e+00 -1.9718397952576e+01 -2.4580217512536e+00 1.1228130840854e-01
368 1 -1.5720105664297e+01 -2.0656943778990e+00 -1.7977748750096e+01 -2.9285706195762e+00 8.3456708841209e-02
144 1 -1.6931030192287e+01 7.4062464696314e-01 -1.8368358767361e+01 -2.3795447752802e+00 1.4331031207173e-02
497 1 -1.6324848730823e+01 -1.7715882016528e-01 -1.5990154683889e+01 -3.2435123321781e+00 7.6832463450352e-02
384 1 -1.4184665633372e+01 3.8990787776062e-01 -1.7182025461185e+01 -3.2857808097527e+00 7.4856434802759e-02
145 1 -1.7571880932807e+01 2.3583782438567e+00 -1.6086492653582e+01 -2.8581791813289e+00 6.7794250477717e-02
68 1 -1.0665456582407e+01 -1.5557965025574e+00 -1.8090351462339e+01 -3.3726492847539e+00 1.9917707752060e-02
51 1 -1.3817989930673e+01 -3.9459925237828e-01 -1.9657050830868e+01 -2.7948745270070e+00 5.4025634558054e-02
57 1 -1.1893217256088e+01 8.7268861729354e-01 -1.8590171396802e+01 -3.3371592748873e+00 1.0693203987906e-01
390 1 -1.1623646779039e+01 9.4898491205982e-02 -1.6008012722911e+01 -3.3215025105731e+00 1.0755884673395e-01
392 1 -9.0856060731927e+00 8.5575607505539e-01 -1.7529405500927e+01 -3.2083991375716e+00 5.1417711012117e-02
63 1 -8.3577636015676e+00 -9.1874401841672e-01 -1.9534102052190e+01 -3.3251049555766e+00 1.9647404727161e-02
393 1 -8.1052634153326e+00 -1.6714204276463e+00 -1.6872386023812e+01 -3.3200711600427e+00 2.1650802986192e-01
377 1 -5.6604115430218e+00 -1.2522635971381e+00 -1.8551513468350e+01 -3.3549483536877e+00 1.5872346745694e-01
374 1 -6.5630430963510e+00 4.0892697520869e-01 -1.6140258965561e+01 -3.3068002265448e+00 8.9583587937709e-02
56 1 -6.8344023019066e+00 1.4140867162536e+00 -1.8611701239483e+01 -3.2814986081299e+00 3.0359271638757e-03
412 1 -5.2413684884389e-01 -1.8001924129006e+00 -1.5895469634333e+01 -3.3181106445933e+00 1.2907820224672e-01
404 1 -3.2044326423755e+00 -1.6821752679666e+00 -1.7127527434039e+01 -3.1990327930926e+00 1.8584707128718e-01
96 1 -7.8352897095611e-01 -5.7564032886921e-01 -1.8628471605225e+01 -3.2569914756233e+00 1.1485923840244e-01
417 1 -1.9332203729997e+00 8.1273108326789e-01 -1.6195011807803e+01 -3.2053148798100e+00 3.0221594372979e-02
84 1 -2.0358287274933e+00 2.1472475510603e+00 -1.8870060121053e+01 -3.1101577827857e+00 2.2344030557959e-02
92 1 -4.2213463637255e+00 1.1113189856177e+00 -1.7654243261221e+01 -3.3556178103937e+00 1.9819947659507e-02
107 1 2.7217232152846e+00 2.1768841112475e+00 -1.9476393785347e+01 -3.3100841516831e+00 8.8311605977139e-02
434 1 4.1425518668382e+00 -1.2485956206465e+00 -1.5944333157707e+01 -3.2653729590181e+00 1.9149881230201e-01
402 1 1.6898778291526e+00 -1.1669735585379e+00 -1.7210178882983e+01 -3.3288186724997e+00 4.4793697944769e-02
433 1 4.1456990634639e+00 -4.7015240264012e-01 -1.8690932850008e+01 -3.3408909279572e+00 8.3642874125209e-02
428 1 3.1454157769107e+00 1.2472434082321e+00 -1.6775686924763e+01 -3.2933341216641e+00 2.3638047351284e-01
401 1 4.2911397097632e-01 1.4387426708637e+00 -1.7700630928830e+01 -3.2785520367702e+00 6.8087416545635e-02
435 1 6.6226153745600e+00 -6.2605667879529e-01 -1.7474321716054e+01 -3.3038054384580e+00 1.5856836558613e-01
426 1 7.9598614583839e+00 1.6222217500930e+00 -1.6985216743234e+01 -3.3122190252683e+00 1.7627205580011e-01
120 1 5.5769907299638e+00 2.0529602349032e+00 -1.8009429990032e+01 -3.2907167579145e+00 7.3009750715322e-02
338 1 9.0247945526980e+00 -1.2670586699411e-01 -1.9213358252534e+01 -3.3627355481319e+00 8.3881056697262e-03